POPC_128
32512
    1PA    C116    1   6.585   5.448   4.138 -0.6050 -0.4781  0.5683
    1PA    H16R    2   6.639   5.533   4.098 -1.7936  0.4866  0.9698
    1PA    H16S    3   6.495   5.435   4.077  1.5982  0.2265 -3.1441
    1PA    H16T    4   6.652   5.363   4.120  1.4031  1.2941 -0.8047
    1PA    C115    5   6.558   5.457   4.291 -0.7392  0.4531  0.6224
    1PA    H15R    6   6.500   5.549   4.298 -0.4403  0.9275 -2.0212
    1PA    H15S    7   6.492   5.375   4.321 -0.5430 -0.2773 -0.8312
    1PA    C114    8   6.692   5.452   4.371 -0.2259  0.2200  0.2632
    1PA    H14R    9   6.716   5.345   4.369  0.7814  0.4404 -0.3721
    1PA    H14S   10   6.768   5.511   4.320  1.1691 -0.0219  1.9714
    1PA    C113   11   6.674   5.517   4.515  0.1059  0.8755 -0.5509
    1PA    H13R   12   6.766   5.530   4.572 -0.1792  2.0292 -0.3320
    1PA    H13S   13   6.628   5.614   4.493 -2.0383  0.0957  0.2318
    1PA    C112   14   6.571   5.436   4.601  0.3367 -0.0925  0.1173
    1PA    H12R   15   6.544   5.506   4.681 -0.1299 -0.8751  0.6639
    1PA    H12S   16   6.476   5.424   4.549 -0.0416 -0.6556  0.9158
    1PA    C111   17   6.638   5.306   4.639  0.0820  0.9733  0.0301
    1PA    H11R   18   6.659   5.246   4.550  0.0491  0.0129  0.6485
    1PA    H11S   19   6.736   5.320   4.686  0.4238  0.1362 -0.4187
    1PA    C110   20   6.532   5.221   4.715 -0.1175  0.3833  0.2537
    1PA    H10R   21   6.450   5.181   4.655 -0.9752  1.7905  0.4388
    1PA    H10S   22   6.588   5.132   4.743  1.4585  1.7993  1.8994
    1PA     C19   23   6.478   5.272   4.851 -0.2356 -0.1541  0.0327
    1PA     H9R   24   6.420   5.364   4.840  0.3824  0.1175 -1.0926
    1PA     H9S   25   6.405   5.198   4.887  0.1147 -0.0116  1.0778
    1PA     C18   26   6.591   5.278   4.952 -0.3717 -0.0698  0.2747
    1PA     H8R   27   6.663   5.196   4.946  0.1687  0.4495 -0.6880
    1PA     H8S   28   6.629   5.376   4.923 -2.2771  0.6405  0.0508
    1PA     C17   29   6.539   5.297   5.094  0.6973 -0.1703 -0.4656
    1PA     H7R   30   6.631   5.311   5.150  0.6444 -2.1714  0.1970
    1PA     H7S   31   6.483   5.391   5.099 -2.1354 -1.6735 -1.5938
    1PA     C16   32   6.456   5.179   5.156 -0.2235  0.2765  0.5614
    1PA     H6R   33   6.365   5.173   5.096  0.3782  0.3528 -0.3934
    1PA     H6S   34   6.509   5.085   5.137 -0.9284 -0.6907  3.0758
    1PA     C15   35   6.417   5.175   5.304  0.2675 -0.4444  0.4673
    1PA     H5R   36   6.497   5.132   5.365 -0.0197 -1.5768  0.0729
    1PA     H5S   37   6.397   5.277   5.338 -0.4005 -0.6068  0.5628
    1PA     C14   38   6.290   5.085   5.329  0.2862 -0.3510  0.8792
    1PA     H4R   39   6.315   4.987   5.290  3.3311  0.1660  1.2801
    1PA     H4S   40   6.268   5.075   5.436  0.1660  0.8621  0.9882
    1PA     C13   41   6.161   5.122   5.260  0.5339 -0.2289  0.1086
    1PA     H3R   42   6.150   5.230   5.267  0.2170 -0.2920  0.7214
    1PA     H3S   43   6.174   5.082   5.159 -0.8854 -2.2859  0.6604
    1PA     C12   44   6.027   5.060   5.312 -0.9240  0.1337  0.1929
    1PA     H2R   45   5.954   5.089   5.237 -0.6585  0.2565 -0.0188
    1PA     H2S   46   6.042   4.952   5.312 -1.3917  0.0625 -0.8443
    2PC     C11   47   5.978   5.113   5.448 -0.9896 -0.2609  0.1351
    2PC     O12   48   6.052   5.149   5.536  0.0985 -0.7328 -0.2022
    2PC     O11   49   5.844   5.102   5.458  0.3266 -0.3664 -0.0873
    2PC      C1   50   5.788   5.141   5.581 -0.1525 -0.4054  0.0229
    2PC      HR   51   5.682   5.116   5.573 -0.2250  0.0151 -0.3634
    2PC      HS   52   5.824   5.083   5.666 -2.7674 -1.9814  0.1488
    2PC      C2   53   5.779   5.291   5.606 -0.2986 -0.1285  0.4210
    2PC      HX   54   5.878   5.336   5.618  0.4392 -1.3046 -0.9649
    2PC      C3   55   5.700   5.319   5.735 -0.2215  0.1283  0.3009
    2PC      HA   56   5.702   5.427   5.756  0.2520  0.3238 -0.7092
    2PC      HB   57   5.595   5.301   5.714  0.0803  2.0151 -3.7815
    2PC     O31   58   5.744   5.239   5.846  0.3323 -0.3354  0.0390
    2PC     P31   59   5.869   5.291   5.928  0.3571 -0.0697  0.2205
    2PC     O32   60   5.987   5.229   5.845 -0.1650  0.3940  0.4469
    2PC     C31   61   6.058   5.114   5.880 -0.7543 -0.4966 -0.6095
    2PC     H1A   62   5.991   5.028   5.891  1.1683 -2.1928 -1.3836
    2PC     H1B   63   6.126   5.097   5.796  1.0630 -0.0325  0.7055
    2PC     C32   64   6.152   5.140   5.996  0.0375  0.2619 -0.4592
    2PC     H2A   65   6.220   5.224   5.983 -0.0387  0.2741 -0.7943
    2PC     H2B   66   6.092   5.178   6.078 -0.4857  0.1894 -0.8027
    2PC     N31   67   6.226   5.018   6.051  0.0957 -0.0875 -0.1487
    2PC     C33   68   6.347   4.976   5.970  0.8447  0.1932 -0.2631
    2PC     H3A   69   6.320   4.955   5.866 -0.4879  0.9185 -0.0837
    2PC     H3B   70   6.406   5.068   5.970  0.0588  0.7224  0.7980
    2PC     H3C   71   6.404   4.904   6.027 -0.3148 -2.6114 -2.3835
    2PC     C34   72   6.275   5.036   6.190 -0.5178  0.3720 -0.6548
    2PC     H4A   73   6.304   5.141   6.194  1.0554 -0.0440 -0.4790
    2PC     H4B   74   6.184   5.014   6.246  0.1186  0.0627  0.2869
    2PC     H4C   75   6.359   4.972   6.217 -1.2232  0.3630  1.7898
    2PC     C35   76   6.135   4.898   6.057 -0.2342 -0.1733  1.4068
    2PC     H5A   77   6.123   4.856   5.957  0.6137 -1.1822  1.7128
    2PC     H5B   78   6.045   4.934   6.106 -0.7040 -1.1992  1.3290
    2PC     H5C   79   6.183   4.820   6.116  0.6144 -1.3611 -0.7591
    2PC     O33   80   5.889   5.440   5.925  0.3897 -0.1306  0.3352
    2PC     O34   81   5.878   5.234   6.064  0.7355 -0.2210  0.8629
    2PC     O21   82   5.712   5.354   5.492  0.0646  0.3015 -0.3394
    2PC     C21   83   5.777   5.376   5.381  0.3106 -0.5677  0.0494
    2PC     O22   84   5.897   5.377   5.371  0.3722  0.0763  0.1878
    3OL     C12   85   5.677   5.403   5.265 -0.2185 -0.1171 -0.0197
    3OL     H2R   86   5.599   5.470   5.302  1.4253  2.0355 -0.2631
    3OL     H2S   87   5.643   5.302   5.241 -0.3032  0.3975 -2.2150
    3OL     C13   88   5.738   5.453   5.129 -0.1027 -0.1560 -0.4895
    3OL     H3R   89   5.819   5.382   5.105  1.4149  0.3756  2.5326
    3OL     H3S   90   5.782   5.551   5.144  1.0204 -0.1706 -3.0290
    3OL     C14   91   5.635   5.452   5.014  0.3497  0.2194 -0.0162
    3OL     H4R   92   5.562   5.522   5.055  1.3124  3.2398 -3.0482
    3OL     H4S   93   5.581   5.357   5.008 -0.9781  0.9837 -0.6394
    3OL     C15   94   5.678   5.495   4.869 -0.6367  1.0368 -0.2645
    3OL     H5R   95   5.585   5.488   4.813  0.2696 -1.7044 -1.6183
    3OL     H5S   96   5.750   5.422   4.831  0.9352  1.3086  1.9832
    3OL     C16   97   5.736   5.631   4.866  0.5741  0.0484 -0.0059
    3OL     H6R   98   5.833   5.636   4.917  0.0231  1.0455  0.9705
    3OL     H6S   99   5.672   5.699   4.921 -0.9655 -1.1557 -0.2609
    3OL     C17  100   5.744   5.679   4.724  0.5312 -0.4280 -0.6552
    3OL     H7R  101   5.647   5.668   4.676  1.0888 -2.6539 -1.4321
    3OL     H7S  102   5.806   5.612   4.663  0.2106 -0.9561 -0.4153
    3OL     C18  103   5.798   5.826   4.713 -0.1395  0.4648  0.3099
    3OL     H8R  104   5.885   5.843   4.775  0.7597  2.0423 -1.2743
    3OL     H8S  105   5.725   5.897   4.753 -0.1736 -0.0567  1.2080
    3OL     C19  106   5.825   5.854   4.564 -0.4506 -0.6986 -0.2060
    3OL     H9R  107   5.777   5.783   4.498 -0.0072 -1.2444  0.0602
    3OL    C110  108   5.917   5.942   4.514  0.2567  0.1990  0.2195
    3OL    H10R  109   5.942   5.951   4.408  1.4645  1.5070  0.5903
    3OL    C111  110   5.998   6.040   4.596 -0.1332 -0.3611 -0.5031
    3OL    H11R  111   5.955   6.053   4.695 -0.8767  0.6656 -0.9350
    3OL    H11S  112   5.989   6.139   4.550 -1.3800  0.2517  0.9752
    3OL    C112  113   6.143   6.009   4.594 -0.0774 -0.6907 -0.8327
    3OL    H12R  114   6.181   6.018   4.492  0.5955 -2.0442 -0.7198
    3OL    H12S  115   6.153   5.905   4.623  0.3671 -0.2537  0.7020
    3OL    C113  116   6.229   6.104   4.688 -0.0353  0.3357 -0.0054
    3OL    H13R  117   6.215   6.205   4.648 -2.0253 -0.2011 -0.7869
    3OL    H13S  118   6.336   6.091   4.672 -0.2856  1.1670 -2.8988
    3OL    C114  119   6.183   6.116   4.840 -1.0437  0.1406  0.0922
    3OL    H14R  120   6.077   6.142   4.847 -0.5536  1.9924  1.6010
    3OL    H14S  121   6.238   6.199   4.885 -2.5138  1.3084 -0.1792
    3OL    C115  122   6.221   6.000   4.935 -0.5641  0.0844 -0.1418
    3OL    H15R  123   6.193   5.909   4.882  0.7569  1.3698 -3.2777
    3OL    H15S  124   6.163   5.998   5.028 -2.5914  3.2623 -1.1619
    3OL    C116  125   6.370   5.985   4.981 -0.3179 -0.1696 -0.2188
    3OL    H16R  126   6.430   5.986   4.890 -0.7368 -1.3790 -0.5320
    3OL    H16S  127   6.367   5.890   5.036 -1.9446  0.5932  1.1095
    3OL    C117  128   6.422   6.089   5.087 -0.4229 -0.6921 -0.9813
    3OL    H17R  129   6.507   6.048   5.143  0.1206  0.2284 -1.1042
    3OL    H17S  130   6.350   6.124   5.161  1.9496  0.3245  1.0038
    3OL    C118  131   6.470   6.224   5.021 -0.6711 -0.2869  0.7898
    3OL    H18R  132   6.390   6.289   4.987  0.2751  2.1354  2.8299
    3OL    H18S  133   6.536   6.194   4.939 -1.2099 -1.5510  0.7884
    3OL    H18T  134   6.527   6.284   5.092 -1.5533  3.5735 -1.5067
    4PA    C116  135   2.185  -0.608   4.866  0.5607  0.0747 -0.2720
    4PA    H16R  136   2.099  -0.608   4.799 -0.2085 -1.3565  0.6682
    4PA    H16S  137   2.262  -0.547   4.819 -0.1388  0.4319 -0.9845
    4PA    H16T  138   2.163  -0.562   4.962 -1.2483  0.0138 -0.6130
    4PA    C115  139   2.229  -0.749   4.899 -0.1489 -0.3575  0.0416
    4PA    H15R  140   2.153  -0.791   4.966 -1.7646  1.4598 -0.5698
    4PA    H15S  141   2.218  -0.809   4.809  0.4961  2.0719 -1.7607
    4PA    C114  142   2.370  -0.762   4.951 -0.0382 -0.1070  0.1909
    4PA    H14R  143   2.369  -0.694   5.037 -1.4259 -0.5102  0.5204
    4PA    H14S  144   2.400  -0.859   4.994  1.1310 -0.3448 -1.0880
    4PA    C113  145   2.489  -0.720   4.862 -0.1881  0.1964  0.0660
    4PA    H13R  146   2.496  -0.790   4.779 -1.9007 -1.3903  1.1710
    4PA    H13S  147   2.470  -0.620   4.821 -1.2102 -0.8754 -2.2289
    4PA    C112  148   2.624  -0.727   4.937  0.7009 -0.8461 -0.1647
    4PA    H12R  149   2.615  -0.673   5.032 -3.0512 -0.5869 -0.5129
    4PA    H12S  150   2.640  -0.829   4.972  1.3826 -0.2480  1.3743
    4PA    C111  151   2.744  -0.683   4.847 -0.3458  0.4702  0.1523
    4PA    H11R  152   2.734  -0.722   4.745  0.2575  0.4322  0.1033
    4PA    H11S  153   2.748  -0.575   4.835 -1.3994  0.4047 -1.1570
    4PA    C110  154   2.879  -0.716   4.909 -1.3096 -0.4508 -0.0508
    4PA    H10R  155   2.892  -0.824   4.915  0.1865 -0.2830 -0.0404
    4PA    H10S  156   2.951  -0.685   4.833 -1.0791  1.5224  0.9079
    4PA     C19  157   2.938  -0.638   5.030 -0.1054 -0.2318  0.4288
    4PA     H9R  158   3.045  -0.657   5.035 -0.5883 -3.4987  0.0693
    4PA     H9S  159   2.935  -0.529   5.024 -1.0638 -0.1878  1.3408
    4PA     C18  160   2.876  -0.673   5.165 -0.1869  0.5812 -0.0582
    4PA     H8R  161   2.768  -0.654   5.163 -0.1638  0.7110 -1.1720
    4PA     H8S  162   2.898  -0.779   5.175 -0.1169  0.4960 -1.0535
    4PA     C17  163   2.950  -0.580   5.259 -0.0313 -0.0138 -0.1030
    4PA     H7R  164   3.050  -0.622   5.266 -0.0994 -0.3767 -1.1414
    4PA     H7S  165   2.960  -0.477   5.226  0.5116  0.4364  1.3744
    4PA     C16  166   2.894  -0.573   5.402  0.4383  0.3661 -0.2682
    4PA     H6R  167   2.945  -0.496   5.460  2.6818 -0.6283 -0.8085
    4PA     H6S  168   2.790  -0.543   5.388  0.0384 -0.7321  0.2911
    4PA     C15  169   2.903  -0.703   5.491 -0.7803 -0.5516 -0.3403
    4PA     H5R  170   2.878  -0.795   5.437 -0.1536 -0.6064 -0.5480
    4PA     H5S  171   3.010  -0.706   5.516 -0.4275  0.2243 -1.6537
    4PA     C14  172   2.820  -0.699   5.620  0.1804 -0.5655 -0.2208
    4PA     H4R  173   2.816  -0.597   5.658 -3.0705 -0.4352 -0.5990
    4PA     H4S  174   2.715  -0.722   5.603  0.3323 -0.2675 -1.6600
    4PA     C13  175   2.850  -0.792   5.738 -0.1901  0.1730  0.5503
    4PA     H3R  176   2.781  -0.768   5.819 -1.9333 -0.5451 -0.6661
    4PA     H3S  177   2.836  -0.896   5.707 -3.0546  1.5322 -3.4383
    4PA     C12  178   3.000  -0.771   5.778 -0.0087  0.6843 -0.5771
    4PA     H2R  179   3.064  -0.754   5.692 -0.7587 -0.6700 -1.4303
    4PA     H2S  180   3.015  -0.689   5.849  0.0859 -1.3663  1.9317
    5PC     C11  181   3.066  -0.900   5.837  0.1460 -0.4904 -0.0595
    5PC     O12  182   3.045  -1.008   5.784  0.0029  0.2999 -0.1290
    5PC     O11  183   3.133  -0.879   5.959 -0.1004 -0.2315  0.4634
    5PC      C1  184   3.214  -1.000   6.012 -0.7807  0.2109 -0.2747
    5PC      HR  185   3.201  -1.004   6.120 -0.3027 -0.3374 -0.2357
    5PC      HS  186   3.175  -1.094   5.971 -1.5232  0.4399 -0.1083
    5PC      C2  187   3.363  -0.985   5.980 -0.4980  0.3892  0.4071
    5PC      HX  188   3.405  -1.078   6.021 -1.0646  0.8292  2.0925
    5PC      C3  189   3.415  -0.856   6.034  0.4299  0.4613 -0.2466
    5PC      HA  190   3.500  -0.819   5.977  0.4051 -0.3459 -0.8241
    5PC      HB  191   3.338  -0.779   6.030 -0.3443 -0.2152  1.1629
    5PC     O31  192   3.442  -0.877   6.176  0.5809  0.6554  0.7997
    5PC     P31  193   3.579  -0.821   6.245  0.2361  0.3225 -0.0347
    5PC     O32  194   3.685  -0.912   6.168 -0.3072  0.1947  0.3071
    5PC     C31  195   3.690  -1.053   6.197 -0.0767 -0.2053  0.2451
    5PC     H1A  196   3.700  -1.064   6.305 -1.3015 -1.4764  0.2662
    5PC     H1B  197   3.593  -1.093   6.164 -0.3214  2.1550 -2.3139
    5PC     C32  198   3.804  -1.122   6.117  0.4962  0.3917  0.1819
    5PC     H2A  199   3.793  -1.229   6.132 -0.3616  0.5863  1.0475
    5PC     H2B  200   3.807  -1.104   6.010  1.5154  0.0487  0.1386
    5PC     N31  201   3.949  -1.087   6.157  0.2505 -0.9417  0.3298
    5PC     C33  202   3.973  -1.101   6.300 -0.0653  0.3639  0.0953
    5PC     H3A  203   4.080  -1.089   6.315  0.2499 -0.6875 -1.1496
    5PC     H3B  204   3.906  -1.040   6.361 -0.7307  0.1262 -0.3862
    5PC     H3C  205   3.949  -1.203   6.330  0.4104  0.1190 -0.3478
    5PC     C34  206   4.053  -1.162   6.089 -0.7967 -0.7750 -0.7466
    5PC     H4A  207   4.154  -1.124   6.105 -0.1547 -2.6342 -0.1302
    5PC     H4B  208   4.043  -1.262   6.133 -2.5010 -0.2841  0.0730
    5PC     H4C  209   4.036  -1.160   5.981  3.4433  0.3130 -1.5792
    5PC     C35  210   3.982  -0.945   6.129  0.0839 -0.5115 -0.0059
    5PC     H5A  211   3.933  -0.892   6.211  1.4805 -1.7091  1.6966
    5PC     H5B  212   3.936  -0.916   6.035 -0.8214  1.2769  0.9347
    5PC     H5C  213   4.091  -0.934   6.131  0.7305 -5.2289  1.1746
    5PC     O33  214   3.591  -0.679   6.206 -0.3833 -0.5034  0.2017
    5PC     O34  215   3.581  -0.864   6.381  0.3179  0.0811 -1.0384
    5PC     O21  216   3.369  -0.982   5.835  0.1017  0.0022  0.3736
    5PC     C21  217   3.485  -1.001   5.771  0.2780  0.5355 -0.5257
    5PC     O22  218   3.589  -1.007   5.825 -0.2542 -0.4073  0.3463
    6OL     C12  219   3.469  -1.015   5.622 -0.0334 -0.5527  0.7811
    6OL     H2R  220   3.442  -0.915   5.585 -2.8508 -1.5396 -0.1088
    6OL     H2S  221   3.387  -1.082   5.594 -0.7493  1.2319 -1.8187
    6OL     C13  222   3.596  -1.062   5.547 -0.2414 -0.1436  0.0993
    6OL     H3R  223   3.620  -1.159   5.590 -1.6397 -0.2408  0.7035
    6OL     H3S  224   3.677  -0.992   5.570 -0.4695 -0.0120  0.5190
    6OL     C14  225   3.569  -1.063   5.397  0.4795 -0.6862 -0.3862
    6OL     H4R  226   3.540  -0.963   5.364  0.5797 -0.0845  1.2586
    6OL     H4S  227   3.500  -1.143   5.369 -0.3222 -0.5494  1.1296
    6OL     C15  228   3.703  -1.090   5.326 -0.3323  0.9403 -0.6303
    6OL     H5R  229   3.772  -1.014   5.365  0.9296  0.3487 -1.6293
    6OL     H5S  230   3.693  -1.062   5.220 -1.2269 -1.0992 -1.1275
    6OL     C16  231   3.777  -1.221   5.356  0.0995  0.2022 -0.5781
    6OL     H6R  232   3.800  -1.222   5.463 -1.0783 -1.3646 -0.3076
    6OL     H6S  233   3.875  -1.226   5.308  1.1345 -1.9632  1.5605
    6OL     C17  234   3.708  -1.351   5.322 -0.4242 -0.2328 -0.0973
    6OL     H7R  235   3.711  -1.364   5.213 -3.9463  0.0788 -0.3528
    6OL     H7S  236   3.604  -1.336   5.354 -0.4819  2.8998 -1.2879
    6OL     C18  237   3.773  -1.470   5.386 -0.0550 -0.3330 -0.6432
    6OL     H8R  238   3.767  -1.456   5.494 -0.5509  2.3854 -0.9776
    6OL     H8S  239   3.878  -1.467   5.356  0.2339  0.4042  0.4309
    6OL     C19  240   3.712  -1.602   5.335 -0.3765 -0.2887 -0.8705
    6OL     H9R  241   3.634  -1.640   5.400  1.4073 -1.4377  0.6961
    6OL    C110  242   3.756  -1.677   5.235  0.3421 -0.3505 -1.1185
    6OL    H10R  243   3.710  -1.776   5.226 -0.9561 -0.2335  2.4573
    6OL    C111  244   3.869  -1.642   5.142  0.2197 -0.1193  0.1389
    6OL    H11R  245   3.956  -1.705   5.162 -1.0320 -1.9841 -0.0832
    6OL    H11S  246   3.909  -1.542   5.156  1.8692 -0.4052 -2.0715
    6OL    C112  247   3.820  -1.669   4.999  0.2738 -0.2052  0.0709
    6OL    H12R  248   3.718  -1.629   4.997 -0.5034 -2.0432  0.7508
    6OL    H12S  249   3.811  -1.776   4.979 -0.4523 -0.3920  1.2482
    6OL    C113  250   3.909  -1.619   4.885  0.3563 -0.1090  0.2194
    6OL    H13R  251   4.007  -1.655   4.917  0.2416 -0.0270  0.6665
    6OL    H13S  252   3.926  -1.511   4.875 -1.6261  0.1900 -0.2042
    6OL    C114  253   3.878  -1.663   4.734  0.5767  0.0386 -0.6609
    6OL    H14R  254   3.964  -1.646   4.669 -0.2152 -0.6600 -1.9178
    6OL    H14S  255   3.808  -1.589   4.696 -0.1487 -0.3251 -0.0759
    6OL    C115  256   3.831  -1.809   4.703 -0.2258 -0.1107 -0.9264
    6OL    H15R  257   3.738  -1.827   4.757  1.3405 -0.5471  1.8083
    6OL    H15S  258   3.894  -1.885   4.750 -2.5737 -0.7953  1.2966
    6OL    C116  259   3.811  -1.844   4.552 -0.0211 -0.6635 -0.3952
    6OL    H16R  260   3.757  -1.764   4.501 -0.3495 -1.1396 -0.7979
    6OL    H16S  261   3.755  -1.938   4.554 -0.4880 -0.3945  1.3743
    6OL    C117  262   3.940  -1.879   4.483 -0.3071  0.7713 -0.3020
    6OL    H17R  263   3.971  -1.982   4.503  0.0996  0.9172 -0.1604
    6OL    H17S  264   4.017  -1.812   4.522  0.2896 -0.0558 -0.0253
    6OL    C118  265   3.921  -1.839   4.332 -0.3447  0.6594 -0.0997
    6OL    H18R  266   4.020  -1.849   4.286 -0.0994 -0.0757  0.5591
    6OL    H18S  267   3.887  -1.735   4.331  0.6494  1.0056 -0.0286
    6OL    H18T  268   3.847  -1.907   4.290  0.3697 -2.0742  2.6769
    7PA    C116  269   1.295   2.729   3.932  0.2198 -0.6189  0.1238
    7PA    H16R  270   1.206   2.739   3.869 -0.3621 -1.5292  0.7896
    7PA    H16S  271   1.363   2.667   3.873  0.1398  0.4364 -1.1406
    7PA    H16T  272   1.347   2.826   3.937  1.1585 -1.0319 -1.1093
    7PA    C115  273   1.260   2.659   4.068  0.2620  0.4672  0.4313
    7PA    H15R  274   1.187   2.729   4.110 -0.2058  0.9783 -1.1489
    7PA    H15S  275   1.199   2.569   4.054  1.0095  0.1079 -0.6366
    7PA    C114  276   1.376   2.617   4.165 -0.4345 -0.3249 -0.1377
    7PA    H14R  277   1.450   2.564   4.104  1.9508  0.4145  1.9396
    7PA    H14S  278   1.428   2.710   4.191  2.0186 -1.6480  0.0327
    7PA    C113  279   1.333   2.539   4.289  0.2589  0.3570 -0.0311
    7PA    H13R  280   1.300   2.439   4.261  2.7006 -0.4783 -0.2649
    7PA    H13S  281   1.421   2.529   4.353 -0.6356  0.4877  1.2541
    7PA    C112  282   1.224   2.616   4.368 -0.2632 -0.2246 -0.8734
    7PA    H12R  283   1.253   2.716   4.401 -2.2307 -0.2716  1.2581
    7PA    H12S  284   1.138   2.628   4.302 -1.3994  0.1334  0.6120
    7PA    C111  285   1.172   2.532   4.488  0.3601  0.4189 -0.0068
    7PA    H11R  286   1.126   2.439   4.454 -1.5535  0.7342  1.5316
    7PA    H11S  287   1.252   2.514   4.561  2.2428  0.9640 -1.8264
    7PA    C110  288   1.055   2.615   4.555  0.0622 -0.5537 -0.4559
    7PA    H10R  289   1.095   2.710   4.590 -0.5568 -1.0460  1.7460
    7PA    H10S  290   0.975   2.637   4.483 -0.1269 -0.3676 -0.1921
    7PA     C19  291   0.996   2.537   4.676  0.0049  0.3224  0.4475
    7PA     H9R  292   0.953   2.439   4.653 -1.2797  0.4704  2.0126
    7PA     H9S  293   1.083   2.518   4.739  0.8512 -1.2222 -1.1194
    7PA     C18  294   0.889   2.622   4.747  0.1845 -0.0021 -0.2784
    7PA     H8R  295   0.930   2.716   4.785 -1.4950  0.9289 -0.6934
    7PA     H8S  296   0.812   2.652   4.676 -2.3553 -1.9509  1.4846
    7PA     C17  297   0.834   2.553   4.872 -0.4628 -0.8735 -0.3220
    7PA     H7R  298   0.782   2.460   4.847 -1.7592 -0.1344 -0.4605
    7PA     H7S  299   0.915   2.526   4.941 -1.8957 -2.0525  0.9808
    7PA     C16  300   0.739   2.639   4.959 -0.0297  0.4369  0.1931
    7PA     H6R  301   0.791   2.720   5.009 -0.5292  0.6805  0.3328
    7PA     H6S  302   0.666   2.684   4.892 -0.3849 -0.1093  0.2067
    7PA     C15  303   0.670   2.549   5.061 -0.2887 -0.1298 -0.0571
    7PA     H5R  304   0.588   2.608   5.103 -0.9286 -1.1219  0.1274
    7PA     H5S  305   0.632   2.460   5.011 -0.7304  1.0345 -1.9159
    7PA     C14  306   0.762   2.500   5.176 -0.0667 -0.2880  0.3709
    7PA     H4R  307   0.843   2.439   5.136 -0.0043  0.1280 -0.1389
    7PA     H4S  308   0.801   2.594   5.216 -3.5889  1.2470  0.5767
    7PA     C13  309   0.689   2.415   5.285 -0.3525 -0.4551 -0.2611
    7PA     H3R  310   0.638   2.327   5.244 -1.2441 -0.3793  0.6416
    7PA     H3S  311   0.761   2.386   5.362  0.5899  0.1468 -0.8947
    7PA     C12  312   0.586   2.506   5.363  0.3304 -0.1021  0.6577
    7PA     H2R  313   0.648   2.579   5.415  1.5378  1.6682 -2.9851
    7PA     H2S  314   0.511   2.556   5.302 -0.4604 -1.1129  0.7700
    8PC     C11  315   0.511   2.426   5.468  1.0569 -0.4816  1.2347
    8PC     O12  316   0.509   2.445   5.589 -0.4662  0.1562 -0.2156
    8PC     O11  317   0.439   2.328   5.407 -0.1612  0.0563 -0.2497
    8PC      C1  318   0.377   2.232   5.493 -0.6244 -0.2639  0.0181
    8PC      HR  319   0.370   2.140   5.435  2.9921 -1.4880  1.2279
    8PC      HS  320   0.445   2.216   5.578 -0.9735 -1.9676  0.0154
    8PC      C2  321   0.237   2.281   5.533  1.0627  0.1758  0.1197
    8PC      HX  322   0.247   2.380   5.578 -3.2410  0.2673  1.2738
    8PC      C3  323   0.170   2.197   5.648 -0.0187 -0.3896  0.1815
    8PC      HA  324   0.070   2.237   5.664 -0.1321  0.2482 -1.7733
    8PC      HB  325   0.157   2.093   5.619  1.9289 -0.5249 -0.3765
    8PC     O31  326   0.253   2.199   5.770 -0.6938 -0.2217 -0.1108
    8PC     P31  327   0.233   2.082   5.878 -0.0690 -0.2984 -0.2888
    8PC     O32  328   0.097   2.118   5.943 -0.3517 -0.0286  0.4223
    8PC     C31  329   0.088   2.207   6.064 -0.3507 -0.3977  0.4545
    8PC     H1A  330   0.013   2.153   6.123 -0.5512 -1.5098 -0.7719
    8PC     H1B  331   0.181   2.195   6.122 -0.1444  0.8769  0.4159
    8PC     C32  332   0.063   2.355   6.028  0.5391 -0.0428  0.4252
    8PC     H2A  333   0.158   2.399   5.999  0.7499  0.0841  1.2883
    8PC     H2B  334  -0.015   2.362   5.951  1.3569 -0.0560 -0.4171
    8PC     N31  335   0.029   2.438   6.151  0.0013 -0.5858 -0.1715
    8PC     C33  336   0.019   2.583   6.116  0.0390 -0.1654  0.1688
    8PC     H3A  337  -0.056   2.596   6.039 -0.0127  0.9929  0.4018
    8PC     H3B  338  -0.007   2.641   6.204 -3.6857  0.2388 -1.0260
    8PC     H3C  339   0.118   2.607   6.078 -0.5853  1.2116 -0.6156
    8PC     C34  340  -0.098   2.385   6.218 -0.1741  0.3110 -0.1370
    8PC     H4A  341  -0.082   2.282   6.251  1.5468  1.1448  1.7651
    8PC     H4B  342  -0.121   2.442   6.308 -0.9574 -0.8209  0.4184
    8PC     H4C  343  -0.186   2.383   6.152 -0.5311  0.8122  0.3175
    8PC     C35  344   0.138   2.423   6.253 -0.5118 -0.4121 -0.3112
    8PC     H5A  345   0.112   2.492   6.334 -2.5193  0.2761 -1.4645
    8PC     H5B  346   0.233   2.452   6.208 -0.1222 -0.8842  0.2120
    8PC     H5C  347   0.152   2.324   6.295 -1.1604 -0.2176  0.3815
    8PC     O33  348   0.215   1.954   5.809 -0.0381 -0.7679  0.5915
    8PC     O34  349   0.338   2.099   5.978 -0.0388 -0.3011 -0.1384
    8PC     O21  350   0.145   2.288   5.421 -0.0814  0.0404  0.6210
    8PC     C21  351   0.151   2.401   5.341 -0.2453  0.5804 -0.1852
    8PC     O22  352   0.207   2.502   5.377  0.3720  0.2680  0.2309
    9OL     C12  353   0.056   2.387   5.221  0.0449  0.6837  0.3196
    9OL     H2R  354   0.001   2.295   5.244  0.6713  0.6430  1.8388
    9OL     H2S  355   0.126   2.366   5.140  1.0012  0.2648  1.2142
    9OL     C13  356  -0.023   2.513   5.205  0.0038 -0.5431  0.0482
    9OL     H3R  357   0.051   2.594   5.205 -0.7888  0.1989 -0.2540
    9OL     H3S  358  -0.088   2.544   5.288  2.2317  3.9866  0.4114
    9OL     C14  359  -0.101   2.520   5.068 -0.7397  0.1230  0.9146
    9OL     H4R  360  -0.036   2.523   4.980  0.0739  0.5609  1.5103
    9OL     H4S  361  -0.145   2.620   5.074 -1.4764 -0.1172 -0.1627
    9OL     C15  362  -0.223   2.422   5.061 -0.1192  0.4224  0.0854
    9OL     H5R  363  -0.297   2.466   5.128 -1.9873 -1.3630 -0.6847
    9OL     H5S  364  -0.196   2.320   5.088  0.2677  1.2830  3.3240
    9OL     C16  365  -0.276   2.432   4.915  0.3542 -0.1948 -0.6674
    9OL     H6R  366  -0.363   2.367   4.907  0.7109 -1.2859  2.7159
    9OL     H6S  367  -0.204   2.393   4.843 -0.4919 -1.5630 -0.7939
    9OL     C17  368  -0.314   2.571   4.866  0.1882  0.4549  0.6012
    9OL     H7R  369  -0.237   2.647   4.880 -0.4146  1.2013 -0.0481
    9OL     H7S  370  -0.392   2.595   4.938 -0.3774 -0.9807  0.5113
    9OL     C18  371  -0.360   2.572   4.720  0.0577 -0.4318 -0.0821
    9OL     H8R  372  -0.272   2.573   4.656 -1.0694  1.9615 -1.7221
    9OL     H8S  373  -0.411   2.666   4.703  0.6330 -0.1256 -0.1569
    9OL     C19  374  -0.448   2.464   4.676  0.2266  1.6702  1.1609
    9OL     H9R  375  -0.515   2.415   4.747  1.5873 -1.6562  0.3575
    9OL    C110  376  -0.459   2.420   4.548 -0.3628 -0.6667 -0.2847
    9OL    H10R  377  -0.529   2.342   4.518 -1.8493  0.7437 -0.6189
    9OL    C111  378  -0.379   2.464   4.426 -0.2609  0.1434 -0.4484
    9OL    H11R  379  -0.276   2.481   4.459 -1.1020  1.9723  1.4732
    9OL    H11S  380  -0.418   2.550   4.371  1.3723  0.3192 -1.4111
    9OL    C112  381  -0.377   2.360   4.316 -0.4806 -0.4826  0.7996
    9OL    H12R  382  -0.309   2.393   4.236 -1.9371 -0.0994 -0.3262
    9OL    H12S  383  -0.475   2.353   4.268  0.0918  0.2728 -0.5578
    9OL    C113  384  -0.338   2.217   4.365 -0.6327  0.2054  0.3641
    9OL    H13R  385  -0.417   2.168   4.423 -1.2383  1.1867  0.3905
    9OL    H13S  386  -0.253   2.226   4.432 -0.2103 -0.3181 -0.0857
    9OL    C114  387  -0.299   2.120   4.246  0.0902 -0.1796  0.4613
    9OL    H14R  388  -0.252   2.025   4.275  2.6443  0.3164 -1.6265
    9OL    H14S  389  -0.225   2.175   4.187 -1.3166 -0.4772 -1.6933
    9OL    C115  390  -0.410   2.072   4.158 -0.7900 -0.3347  0.5420
    9OL    H15R  391  -0.460   2.164   4.129  1.9367  1.0324 -0.1838
    9OL    H15S  392  -0.477   2.005   4.212  0.1598 -0.7246  1.2637
    9OL    C116  393  -0.356   1.999   4.032 -0.4570  0.6350  0.1494
    9OL    H16R  394  -0.311   1.903   4.060  0.5845  1.8699  3.1005
    9OL    H16S  395  -0.271   2.054   3.991 -0.1404  0.4929  0.5984
    9OL    C117  396  -0.462   1.974   3.921  0.3264  0.5160 -0.5930
    9OL    H17R  397  -0.540   1.916   3.969  0.9682  0.6152  0.6046
    9OL    H17S  398  -0.419   1.916   3.838 -1.0065  0.1528 -1.0452
    9OL    C118  399  -0.527   2.099   3.870  0.5790 -0.6997 -0.2854
    9OL    H18R  400  -0.582   2.095   3.775  1.8923 -1.0886 -1.0515
    9OL    H18S  401  -0.445   2.167   3.845  0.4255 -0.8618 -1.2789
    9OL    H18T  402  -0.597   2.143   3.941 -0.5313  0.5849 -2.0970
   10PA    C116  403   1.477   3.062   4.234 -0.1328  0.0469  0.2070
   10PA    H16R  404   1.547   3.080   4.153  2.8768  1.8814  2.9956
   10PA    H16S  405   1.494   2.959   4.265  0.5077  0.9944  3.3567
   10PA    H16T  406   1.507   3.130   4.314  2.6409 -0.7028 -0.0973
   10PA    C115  407   1.332   3.081   4.178 -0.1121  0.1037  0.8651
   10PA    H15R  408   1.321   3.190   4.172 -1.2347 -0.0719 -2.3037
   10PA    H15S  409   1.323   3.045   4.075 -0.0717 -1.4502  1.3859
   10PA    C114  410   1.227   3.015   4.269  0.2662 -0.3532 -0.3339
   10PA    H14R  411   1.220   2.907   4.253 -3.3451 -0.5092  1.4414
   10PA    H14S  412   1.257   3.023   4.374  2.2983 -0.3332 -0.8635
   10PA    C113  413   1.090   3.083   4.241  0.4215  0.4338  0.5123
   10PA    H13R  414   1.106   3.186   4.272  0.5259  1.5684 -2.9372
   10PA    H13S  415   1.061   3.093   4.136  0.8322  1.0191  0.4542
   10PA    C112  416   0.984   3.006   4.326 -0.9572 -0.2082  0.8058
   10PA    H12R  417   0.994   2.899   4.308  1.5292  0.2005 -0.6099
   10PA    H12S  418   1.011   3.015   4.432  1.0435  1.1019  0.2292
   10PA    C111  419   0.838   3.052   4.314 -0.0093  0.7601 -0.4898
   10PA    H11R  420   0.833   3.159   4.336 -0.1515  1.0832 -1.9802
   10PA    H11S  421   0.805   3.051   4.210  2.3405 -0.0211 -1.3004
   10PA    C110  422   0.733   2.974   4.398 -0.4362 -0.4212  0.6588
   10PA    H10R  423   0.631   2.989   4.359 -0.7324 -1.9560  0.7839
   10PA    H10S  424   0.747   2.867   4.384 -4.8845 -1.1176 -0.1779
   10PA     C19  425   0.744   2.999   4.545  0.0525 -0.0770 -0.0496
   10PA     H9R  426   0.836   2.954   4.583 -0.6653 -1.2149  0.3923
   10PA     H9S  427   0.747   3.107   4.556  1.2525  0.0549 -1.4192
   10PA     C18  428   0.634   2.938   4.631 -0.9233  0.3423  0.1316
   10PA     H8R  429   0.533   2.967   4.602  0.0027  0.8092 -3.0438
   10PA     H8S  430   0.641   2.835   4.596  0.0166  0.3204  0.3593
   10PA     C17  431   0.641   2.933   4.786  0.1784  0.1545 -0.0252
   10PA     H7R  432   0.573   2.855   4.822  0.8347 -0.1479  0.5655
   10PA     H7S  433   0.743   2.915   4.821 -0.0040  0.7378  0.8292
   10PA     C16  434   0.602   3.064   4.852 -0.3643 -0.7294 -0.4356
   10PA     H6R  435   0.667   3.150   4.836  0.2143 -1.3578 -1.4946
   10PA     H6S  436   0.509   3.094   4.803 -0.3546  0.0649  0.0125
   10PA     C15  437   0.584   3.039   5.004  0.4483 -0.8828 -0.3475
   10PA     H5R  438   0.508   2.960   5.015 -1.9852  1.1292 -1.5895
   10PA     H5S  439   0.676   3.004   5.050  1.1364  1.5526  0.2663
   10PA     C14  440   0.515   3.174   5.069 -1.2678 -0.6222 -0.3975
   10PA     H4R  441   0.437   3.210   5.002 -1.1745 -0.0133 -0.1791
   10PA     H4S  442   0.486   3.143   5.170 -0.1182 -0.7414 -0.0872
   10PA     C13  443   0.612   3.290   5.079  0.6716 -0.5418 -0.0588
   10PA     H3R  444   0.694   3.259   5.144  0.0998  0.4130  1.1648
   10PA     H3S  445   0.661   3.304   4.982 -1.4241  0.8329 -0.9990
   10PA     C12  446   0.545   3.420   5.126 -0.3685 -0.0408 -0.0346
   10PA     H2R  447   0.614   3.502   5.148 -1.6527  0.6059  1.9008
   10PA     H2S  448   0.467   3.441   5.052 -2.6590 -3.1265  1.2460
   11PC     C11  449   0.479   3.387   5.257  0.2814 -0.0241  0.5410
   11PC     O12  450   0.542   3.349   5.353  0.4823 -0.3225  0.0255
   11PC     O11  451   0.345   3.397   5.251 -0.0591  0.6135 -0.2113
   11PC      C1  452   0.265   3.376   5.375  0.5036 -0.5055 -0.3898
   11PC      HR  453   0.333   3.357   5.458 -1.4919  1.2034  1.7783
   11PC      HS  454   0.224   3.474   5.400  1.3849 -0.3905  0.7057
   11PC      C2  455   0.146   3.272   5.371 -0.3043  0.2953  0.8097
   11PC      HX  456   0.086   3.295   5.282  1.7483 -1.3712 -1.1331
   11PC      C3  457   0.072   3.261   5.507 -0.9241  0.3071  0.0529
   11PC      HA  458   0.013   3.352   5.520 -1.3435  0.3221 -1.6515
   11PC      HB  459   0.005   3.175   5.496 -0.9601  0.6290 -3.8977
   11PC     O31  460   0.171   3.244   5.606  0.3665 -0.3869 -0.7973
   11PC     P31  461   0.194   3.111   5.696  0.1195 -0.3991  0.3197
   11PC     O32  462   0.298   3.029   5.607 -0.6892  0.0139 -0.1389
   11PC     C31  463   0.425   3.074   5.567 -0.1630 -0.3145 -0.3047
   11PC     H1A  464   0.455   3.036   5.469 -1.1448  1.9540 -1.5664
   11PC     H1B  465   0.410   3.181   5.551 -0.2739 -0.4403 -1.0405
   11PC     C32  466   0.538   3.044   5.682 -0.4003  0.7180  0.1357
   11PC     H2A  467   0.629   3.079   5.633 -2.4647  2.8110 -2.4779
   11PC     H2B  468   0.508   3.106   5.767 -0.8586 -0.1092  0.5989
   11PC     N31  469   0.553   2.899   5.730  0.4869  0.1400  0.6652
   11PC     C33  470   0.669   2.893   5.829 -0.2727  0.2621 -0.3615
   11PC     H3A  471   0.672   2.794   5.875 -1.1153  0.3399 -0.1122
   11PC     H3B  472   0.763   2.915   5.778 -0.1932  0.2003 -0.2409
   11PC     H3C  473   0.641   2.965   5.906 -0.4241  0.4571 -0.5921
   11PC     C34  474   0.428   2.847   5.789  0.1686  0.1609  0.6656
   11PC     H4A  475   0.406   2.917   5.870  0.6989  0.8360  0.2360
   11PC     H4B  476   0.342   2.846   5.721  1.9017 -1.5575 -1.6621
   11PC     H4C  477   0.455   2.748   5.826  3.8096  1.8886  3.2293
   11PC     C35  478   0.599   2.815   5.619  0.2608  0.5281  0.0935
   11PC     H5A  479   0.537   2.835   5.531  0.0406  1.2588  0.4057
   11PC     H5B  480   0.596   2.708   5.640  0.1969  0.4817 -0.1457
   11PC     H5C  481   0.698   2.846   5.585 -0.2290 -0.3648 -2.3900
   11PC     O33  482   0.263   3.147   5.821 -0.0153 -0.0953 -0.2950
   11PC     O34  483   0.070   3.031   5.699 -0.5354 -0.4976  0.1494
   11PC     O21  484   0.218   3.149   5.340 -0.6296  0.4086  0.1714
   11PC     C21  485   0.140   3.051   5.280 -0.7807  0.2939 -0.4770
   11PC     O22  486   0.027   3.066   5.253 -0.1457  0.1847  0.4023
   12OL     C12  487   0.222   2.924   5.246  0.7723 -0.6943  0.2461
   12OL     H2R  488   0.197   2.850   5.322  1.3336 -1.5104 -0.3503
   12OL     H2S  489   0.329   2.945   5.257  0.7172 -0.4216  0.2540
   12OL     C13  490   0.176   2.866   5.109  0.3168 -0.2059 -0.1050
   12OL     H3R  491   0.169   2.943   5.033  1.2169 -0.5831 -0.5978
   12OL     H3S  492   0.079   2.815   5.107  1.7710 -3.2238 -1.4747
   12OL     C14  493   0.275   2.761   5.046  0.0936 -0.6419  0.1530
   12OL     H4R  494   0.301   2.682   5.117  0.0071 -0.2858  0.5805
   12OL     H4S  495   0.367   2.819   5.035 -0.0460 -0.6720 -1.5229
   12OL     C15  496   0.240   2.697   4.907 -0.0621  0.5065 -0.2507
   12OL     H5R  497   0.210   2.773   4.835 -0.2330  0.7686  0.0948
   12OL     H5S  498   0.160   2.624   4.913  0.1931  0.1332 -1.2626
   12OL     C16  499   0.363   2.631   4.850 -0.0867 -0.1209  0.1519
   12OL     H6R  500   0.391   2.560   4.928 -1.8722  1.3033  2.2625
   12OL     H6S  501   0.446   2.701   4.838  1.1738 -1.5552  0.2162
   12OL     C17  502   0.341   2.560   4.712 -0.4747 -0.1038 -0.0447
   12OL     H7R  503   0.267   2.609   4.649 -0.1264 -2.3940 -2.4302
   12OL     H7S  504   0.301   2.462   4.739 -2.6885  0.5558 -0.7748
   12OL     C18  505   0.474   2.546   4.632 -0.0866 -0.9676 -0.1347
   12OL     H8R  506   0.556   2.494   4.681  0.6598  1.2571  1.1153
   12OL     H8S  507   0.513   2.646   4.614  0.8246 -1.1139  0.8990
   12OL     C19  508   0.445   2.479   4.500 -0.2195  0.1773  0.3976
   12OL     H9R  509   0.354   2.515   4.454 -0.9426  1.3781  2.6311
   12OL    C110  510   0.505   2.373   4.449 -0.1668 -0.3684 -0.5271
   12OL    H10R  511   0.460   2.329   4.360  0.3866  0.2821 -1.1437
   12OL    C111  512   0.642   2.308   4.493  0.9866 -0.2752 -0.9072
   12OL    H11R  513   0.614   2.230   4.564 -3.4759  0.6377 -1.3936
   12OL    H11S  514   0.705   2.384   4.540 -0.7922  0.0919  1.0105
   12OL    C112  515   0.718   2.243   4.377 -0.7241 -0.1738  0.5002
   12OL    H12R  516   0.673   2.149   4.344  0.1521 -1.1779  2.0179
   12OL    H12S  517   0.820   2.217   4.409 -1.6424 -1.6884  2.4773
   12OL    C113  518   0.726   2.327   4.250 -0.5391  0.0641 -0.5090
   12OL    H13R  519   0.619   2.343   4.231 -0.7946  0.6596  1.1883
   12OL    H13S  520   0.767   2.270   4.167 -0.6408 -1.1274  0.2345
   12OL    C114  521   0.807   2.459   4.260  0.0783 -0.0117 -0.2648
   12OL    H14R  522   0.910   2.428   4.243 -0.3514 -1.9200  0.3659
   12OL    H14S  523   0.796   2.505   4.358 -1.1173  0.0398 -0.3996
   12OL    C115  524   0.760   2.555   4.149  0.0063  0.3652  0.2729
   12OL    H15R  525   0.680   2.623   4.179 -0.5342  0.8175 -2.0361
   12OL    H15S  526   0.726   2.502   4.059 -1.2693  2.5751 -0.6215
   12OL    C116  527   0.882   2.638   4.106 -0.5060 -0.3861  0.7753
   12OL    H16R  528   0.933   2.582   4.028 -2.7014 -1.0039 -0.2948
   12OL    H16S  529   0.955   2.654   4.185  0.2630 -1.0185  0.2045
   12OL    C117  530   0.853   2.783   4.053 -0.0163 -0.1473 -0.5785
   12OL    H17R  531   0.944   2.834   4.020  0.0101  1.6852  1.9951
   12OL    H17S  532   0.820   2.844   4.137  2.4506  0.6945 -0.1366
   12OL    C118  533   0.749   2.806   3.945 -0.5974 -0.5122 -0.0545
   12OL    H18R  534   0.649   2.822   3.986 -0.0064 -0.7960  1.5483
   12OL    H18S  535   0.745   2.717   3.882 -0.4333 -0.8170  0.3612
   12OL    H18T  536   0.768   2.891   3.878 -1.3863  0.0743  0.4388
   13PA    C116  537   5.207   7.982   3.816  0.0163 -1.2413  0.8909
   13PA    H16R  538   5.285   8.034   3.759 -0.5654  0.1887  1.3540
   13PA    H16S  539   5.117   7.966   3.757 -0.0303  0.6452  0.3803
   13PA    H16T  540   5.242   7.884   3.848  2.1967 -0.3621  1.3707
   13PA    C115  541   5.175   8.083   3.935 -0.4751  0.3970  0.1993
   13PA    H15R  542   5.140   8.178   3.894 -1.0774  0.3154  0.5092
   13PA    H15S  543   5.094   8.033   3.988 -0.0886  1.0574  1.4629
   13PA    C114  544   5.287   8.094   4.042  0.1133  0.6816  0.2455
   13PA    H14R  545   5.316   7.993   4.073 -0.6172  0.5861  0.6449
   13PA    H14S  546   5.377   8.137   3.999  1.3056 -1.1308  0.8147
   13PA    C113  547   5.238   8.173   4.171 -0.5087  0.3360 -0.0722
   13PA    H13R  548   5.227   8.279   4.148  0.3564  0.5694  0.5441
   13PA    H13S  549   5.146   8.133   4.213  0.2950 -2.2554 -0.6327
   13PA    C112  550   5.342   8.156   4.277 -0.1238 -0.2541  0.3756
   13PA    H12R  551   5.338   8.052   4.308 -0.7069 -0.5458 -0.6695
   13PA    H12S  552   5.439   8.162   4.227 -1.8258 -0.1660 -3.1971
   13PA    C111  553   5.325   8.241   4.399 -0.4994  0.0938 -0.4225
   13PA    H11R  554   5.279   8.336   4.373 -1.0870 -0.0634  0.0330
   13PA    H11S  555   5.253   8.190   4.463  1.1268  1.6902  2.9342
   13PA    C110  556   5.460   8.254   4.488 -0.5167  0.5371  0.0597
   13PA    H10R  557   5.483   8.161   4.540 -2.5987  0.5544  1.0844
   13PA    H10S  558   5.546   8.283   4.427  2.1494 -0.0476  3.2684
   13PA     C19  559   5.439   8.351   4.606  0.7308  0.3388 -0.0892
   13PA     H9R  560   5.437   8.455   4.571  1.4486 -0.1405 -1.6727
   13PA     H9S  561   5.348   8.338   4.665  0.4334  0.9471 -0.3968
   13PA     C18  562   5.561   8.337   4.699 -0.3902  0.7315 -0.2969
   13PA     H8R  563   5.579   8.230   4.708  0.8347  0.7158 -2.3036
   13PA     H8S  564   5.653   8.381   4.659 -0.4749 -0.4198 -1.8394
   13PA     C17  565   5.549   8.383   4.848  0.4887 -0.0997 -0.6443
   13PA     H7R  566   5.577   8.488   4.845 -0.0475  0.0271 -1.5114
   13PA     H7S  567   5.444   8.379   4.877  0.8514  0.7311  0.8801
   13PA     C16  568   5.630   8.302   4.950 -0.0602 -0.3983  0.0371
   13PA     H6R  569   5.575   8.211   4.975  0.0914 -1.0032 -1.6972
   13PA     H6S  570   5.721   8.264   4.902 -0.9233  0.0331 -2.0496
   13PA     C15  571   5.671   8.371   5.081 -0.5071  0.0757  0.1664
   13PA     H5R  572   5.723   8.299   5.143 -0.2082  0.1368 -0.0088
   13PA     H5S  573   5.743   8.449   5.054  0.6056 -0.3102  1.8863
   13PA     C14  574   5.552   8.428   5.162  0.5839 -0.3596 -0.3798
   13PA     H4R  575   5.577   8.489   5.249 -2.8211  0.5604  0.1181
   13PA     H4S  576   5.502   8.495   5.091  1.0850  1.2683  0.7268
   13PA     C13  577   5.466   8.308   5.208  0.1676 -0.0068  0.0028
   13PA     H3R  578   5.425   8.254   5.122 -0.7440  0.9509 -0.1894
   13PA     H3S  579   5.529   8.246   5.272  1.3053  0.9761 -0.1376
   13PA     C12  580   5.345   8.350   5.282  0.6850  0.7700 -0.8698
   13PA     H2R  581   5.293   8.425   5.222  0.1285  0.2188 -1.0915
   13PA     H2S  582   5.274   8.266   5.290  1.2847  0.1790 -1.5946
   14PC     C11  583   5.365   8.402   5.420 -0.0884  0.4038  0.9252
   14PC     O12  584   5.458   8.357   5.486 -0.2788 -0.2962  0.6302
   14PC     O11  585   5.278   8.506   5.455 -0.4518 -0.1427  0.4643
   14PC      C1  586   5.313   8.575   5.574  0.8970 -0.3843  0.0973
   14PC      HR  587   5.220   8.626   5.601  0.1641  0.0268 -2.8403
   14PC      HS  588   5.356   8.506   5.648  1.6979 -1.2598 -1.1318
   14PC      C2  589   5.419   8.683   5.538 -0.0799  0.3827 -0.8636
   14PC      HX  590   5.497   8.633   5.481 -1.9734 -1.9274 -1.5832
   14PC      C3  591   5.479   8.744   5.672 -0.1412  0.5821  0.4969
   14PC      HA  592   5.582   8.707   5.680  0.6652  1.9898 -2.1345
   14PC      HB  593   5.490   8.853   5.665  2.9413  0.3269 -0.1414
   14PC     O31  594   5.400   8.708   5.787  0.0368 -0.3028  0.0906
   14PC     P31  595   5.470   8.710   5.927  0.2341  0.1813  0.1345
   14PC     O32  596   5.438   8.852   5.997  0.6818  0.0524 -0.5687
   14PC     C31  597   5.323   8.876   6.081  0.0423  0.4749  0.1275
   14PC     H1A  598   5.234   8.892   6.020 -0.4492  2.8248  1.3463
   14PC     H1B  599   5.310   8.786   6.142  3.5356  1.6237  2.8929
   14PC     C32  600   5.348   9.001   6.176  0.0608 -0.5093  0.0354
   14PC     H2A  601   5.330   9.093   6.122 -0.0442 -1.2570 -1.2389
   14PC     H2B  602   5.280   8.995   6.261 -1.6587  0.5716 -1.2223
   14PC     N31  603   5.479   9.017   6.244 -0.1254  0.1164  0.0720
   14PC     C33  604   5.519   8.874   6.281 -0.7613  1.0395 -1.1013
   14PC     H3A  605   5.431   8.831   6.330 -0.8307  2.5321  0.1789
   14PC     H3B  606   5.546   8.819   6.191  2.7109 -0.5443  0.7018
   14PC     H3C  607   5.601   8.884   6.353  0.5776 -0.0805 -2.4045
   14PC     C34  608   5.579   9.093   6.161 -0.2373 -0.7338 -0.3487
   14PC     H4A  609   5.543   9.193   6.134  1.3259  0.3780  1.4208
   14PC     H4B  610   5.668   9.113   6.221 -0.4063 -0.6623 -0.1184
   14PC     H4C  611   5.613   9.033   6.078  2.5807 -0.2454  0.3483
   14PC     C35  612   5.460   9.087   6.370 -0.0725  0.8386 -0.8119
   14PC     H5A  613   5.512   9.183   6.374  1.4133  0.0367  0.6829
   14PC     H5B  614   5.502   9.041   6.459 -1.7765 -0.5795 -0.7068
   14PC     H5C  615   5.352   9.098   6.385  0.0689  1.4821 -0.2138
   14PC     O33  616   5.412   8.599   6.011  0.2771 -0.0516 -0.2309
   14PC     O34  617   5.617   8.707   5.906 -0.5936  0.2619 -0.2282
   14PC     O21  618   5.359   8.791   5.463 -0.1019 -0.6623  0.4051
   14PC     C21  619   5.425   8.825   5.350  0.0372 -0.4987  1.3873
   14PC     O22  620   5.543   8.802   5.315  0.1938  0.3105  0.0790
   15OL     C12  621   5.335   8.910   5.259 -0.6595  0.6687 -0.0211
   15OL     H2R  622   5.334   9.014   5.292  0.6956  0.9433 -0.7813
   15OL     H2S  623   5.234   8.868   5.271 -1.1501  1.1505 -2.1494
   15OL     C13  624   5.384   8.909   5.110  0.0217  0.0283  1.0613
   15OL     H3R  625   5.483   8.956   5.110  0.2558 -0.4602  0.2961
   15OL     H3S  626   5.312   8.962   5.047  0.5376 -0.1717  0.3011
   15OL     C14  627   5.413   8.776   5.031 -0.1313 -0.1344 -0.9281
   15OL     H4R  628   5.321   8.717   5.033  0.1700 -0.6450  1.9960
   15OL     H4S  629   5.495   8.720   5.075 -0.3711 -0.0582 -0.3769
   15OL     C15  630   5.433   8.790   4.878 -0.1306 -0.8769 -0.2279
   15OL     H5R  631   5.466   8.691   4.845  1.3390  0.2112 -2.2103
   15OL     H5S  632   5.525   8.845   4.859  0.6149 -0.9855  2.5709
   15OL     C16  633   5.312   8.845   4.792 -0.8591  0.0682  0.4022
   15OL     H6R  634   5.326   8.840   4.683  0.6920 -1.1436  0.6117
   15OL     H6S  635   5.284   8.949   4.808  1.1853  0.7095  0.0766
   15OL     C17  636   5.185   8.758   4.810 -0.0456  0.2128  0.0019
   15OL     H7R  637   5.107   8.802   4.747 -0.6592 -0.1576  0.4948
   15OL     H7S  638   5.151   8.769   4.913  0.0793 -0.2190  0.0900
   15OL     C18  639   5.191   8.616   4.762  0.1909 -0.2890  0.3446
   15OL     H8R  640   5.275   8.562   4.805  0.6202 -0.0031 -0.1295
   15OL     H8S  641   5.205   8.604   4.654 -3.2862  1.7014 -0.4944
   15OL     C19  642   5.066   8.538   4.792 -0.1031 -0.0177 -0.2816
   15OL     H9R  643   5.041   8.518   4.896 -1.8759  1.0714 -0.4442
   15OL    C110  644   4.977   8.495   4.708 -0.5249  0.5899  0.3688
   15OL    H10R  645   4.899   8.438   4.758  0.2805  0.0010  0.9763
   15OL    C111  646   4.989   8.487   4.555  0.1822 -0.1062 -0.4539
   15OL    H11R  647   5.091   8.478   4.518  0.8445 -0.5491  1.3337
   15OL    H11S  648   4.938   8.575   4.516 -0.4180 -0.1567  0.1927
   15OL    C112  649   4.912   8.375   4.495  0.2761 -0.1101  0.1470
   15OL    H12R  650   4.941   8.279   4.539  0.1243  0.2655  1.0855
   15OL    H12S  651   4.936   8.385   4.389  0.1687  1.8189  0.2806
   15OL    C113  652   4.759   8.391   4.502 -0.0972  0.3437 -0.6891
   15OL    H13R  653   4.736   8.479   4.442  1.8554  0.1590 -1.7962
   15OL    H13S  654   4.741   8.411   4.608  2.3399 -1.1160  0.0758
   15OL    C114  655   4.679   8.274   4.437 -0.5291  0.2461 -0.3017
   15OL    H14R  656   4.575   8.301   4.455 -0.6689 -0.0745 -0.6137
   15OL    H14S  657   4.693   8.178   4.487 -2.9314 -0.0564 -0.1090
   15OL    C115  658   4.695   8.249   4.282  0.2341 -0.6628 -0.8856
   15OL    H15R  659   4.803   8.242   4.264  0.4650  1.8376 -0.9028
   15OL    H15S  660   4.665   8.340   4.229  1.0745  0.0697 -0.1503
   15OL    C116  661   4.606   8.132   4.231 -0.6632  0.2272 -0.3842
   15OL    H16R  662   4.505   8.167   4.205 -0.6794  1.4877  1.2277
   15OL    H16S  663   4.597   8.044   4.294 -1.1250 -1.2120 -2.3395
   15OL    C117  664   4.661   8.090   4.093 -0.0329 -0.1665 -0.5182
   15OL    H17R  665   4.767   8.069   4.107 -0.0708 -0.8254 -1.1313
   15OL    H17S  666   4.648   8.172   4.022  1.5102  0.3210 -0.2752
   15OL    C118  667   4.586   7.971   4.035  0.3381  0.0424 -0.5945
   15OL    H18R  668   4.623   7.944   3.935  1.5916  0.3807 -0.2349
   15OL    H18S  669   4.480   7.996   4.029  0.1351  0.5762  3.0344
   15OL    H18T  670   4.598   7.885   4.101 -3.2915 -1.7426 -1.9898
   16PA    C116  671   4.161   1.880   4.779 -0.9177  0.6990  0.1151
   16PA    H16R  672   4.151   1.778   4.817  1.2418  0.8393  1.2384
   16PA    H16S  673   4.211   1.869   4.682 -2.1319 -1.2390 -0.3387
   16PA    H16T  674   4.060   1.915   4.756 -0.9558  0.8415  0.5004
   16PA    C115  675   4.227   1.969   4.887  1.1470 -0.7571  0.2363
   16PA    H15R  676   4.332   1.947   4.868  0.7258 -1.7394 -1.0627
   16PA    H15S  677   4.200   2.074   4.875 -1.6140 -0.9909  3.0282
   16PA    C114  678   4.191   1.930   5.032 -0.4587 -0.1438 -0.7370
   16PA    H14R  679   4.210   1.822   5.037  2.8495  0.2512 -2.3806
   16PA    H14S  680   4.264   1.977   5.098 -0.9336 -0.1212 -0.2214
   16PA    C113  681   4.052   1.962   5.086  0.0071  0.1098  0.1063
   16PA    H13R  682   3.973   1.922   5.022  0.4156  1.2609 -1.1641
   16PA    H13S  683   4.059   1.911   5.183  1.4809 -1.9520 -0.9804
   16PA    C112  684   4.015   2.108   5.120  0.2331 -0.1220  0.3248
   16PA    H12R  685   4.094   2.143   5.187 -1.5397  0.2190  2.3591
   16PA    H12S  686   4.020   2.169   5.030 -0.1844  0.9695  1.0172
   16PA    C111  687   3.875   2.124   5.186 -0.2504 -0.0846  0.5590
   16PA    H11R  688   3.890   2.088   5.288  1.2239  4.4213  2.2243
   16PA    H11S  689   3.851   2.230   5.200  1.8757  0.1023  3.9994
   16PA    C110  690   3.762   2.042   5.120 -0.2210 -0.4733  0.1976
   16PA    H10R  691   3.759   2.051   5.011 -2.8156  0.2618  0.2431
   16PA    H10S  692   3.763   1.936   5.146 -0.6260 -0.6635 -0.5284
   16PA     C19  693   3.629   2.082   5.182  0.3874  0.7075  0.0182
   16PA     H9R  694   3.552   2.009   5.152 -0.8608  1.6901  0.7421
   16PA     H9S  695   3.634   2.079   5.291  0.5714  0.9828  0.0181
   16PA     C18  696   3.568   2.218   5.147  0.5240  0.1035  1.2324
   16PA     H8R  697   3.637   2.297   5.176  1.1406 -0.6440  1.8807
   16PA     H8S  698   3.552   2.228   5.040 -0.3947  1.1826  1.4481
   16PA     C17  699   3.429   2.246   5.206  0.1844  0.3879  0.2412
   16PA     H7R  700   3.434   2.222   5.313  0.0158 -3.5011 -0.4844
   16PA     H7S  701   3.406   2.351   5.191 -1.6604 -0.0274 -0.0921
   16PA     C16  702   3.316   2.163   5.144 -0.0223 -0.7769 -0.4277
   16PA     H6R  703   3.324   2.188   5.038  0.3151  2.4735  0.2457
   16PA     H6S  704   3.355   2.061   5.145 -0.0374 -0.8011 -1.2921
   16PA     C15  705   3.177   2.167   5.206 -0.2716  0.2903  0.5153
   16PA     H5R  706   3.111   2.107   5.142 -0.2135 -0.0222  0.7426
   16PA     H5S  707   3.174   2.107   5.298 -2.7137 -2.7937 -1.3634
   16PA     C14  708   3.108   2.301   5.237  0.8641 -0.1208 -0.3685
   16PA     H4R  709   3.152   2.347   5.326  0.4894 -0.6724  0.1090
   16PA     H4S  710   3.126   2.363   5.149 -1.6421 -0.3266 -1.1163
   16PA     C13  711   2.953   2.278   5.235 -0.0061 -0.0600  0.1278
   16PA     H3R  712   2.899   2.369   5.210  1.3283  0.4856 -0.9093
   16PA     H3S  713   2.930   2.209   5.153 -0.0656  0.2795 -0.1410
   16PA     C12  714   2.898   2.208   5.358  0.4848  0.1823 -0.4304
   16PA     H2R  715   2.797   2.177   5.332 -0.5802  0.4220  2.9436
   16PA     H2S  716   2.957   2.120   5.383 -0.4833  0.2304  2.4616
   17PC     C11  717   2.904   2.290   5.483 -0.3291  0.1896 -0.0300
   17PC     O12  718   2.945   2.255   5.591  0.4094  0.5544  0.5724
   17PC     O11  719   2.854   2.416   5.460 -0.3714  0.0615  0.8354
   17PC      C1  720   2.867   2.530   5.555 -0.5407 -0.2909 -0.0438
   17PC      HR  721   2.801   2.606   5.513  0.5825  0.3042 -0.7736
   17PC      HS  722   2.835   2.507   5.657 -0.3040 -2.6898 -0.4399
   17PC      C2  723   3.010   2.584   5.567  0.1035  0.0005  0.1007
   17PC      HX  724   3.079   2.510   5.608  1.3374  0.4388 -1.1088
   17PC      C3  725   3.014   2.708   5.671 -0.5939 -0.1263 -0.5060
   17PC      HA  726   3.117   2.728   5.702 -1.3060 -1.0210  2.8546
   17PC      HB  727   2.958   2.795   5.636 -4.7852 -2.1033  0.6361
   17PC     O31  728   2.947   2.684   5.795  0.7327 -0.6282  0.1165
   17PC     P31  729   3.019   2.620   5.923 -0.3331  0.2786 -0.2026
   17PC     O32  730   3.048   2.465   5.883  0.2661 -0.1779 -0.1800
   17PC     C31  731   2.954   2.360   5.914  0.7013  0.3088 -0.8615
   17PC     H1A  732   2.861   2.412   5.938  1.1088  0.9751 -0.6845
   17PC     H1B  733   2.939   2.298   5.825  0.0189  1.6591 -1.7211
   17PC     C32  734   3.001   2.284   6.047 -0.3187 -0.1451 -0.5448
   17PC     H2A  735   3.092   2.225   6.036 -0.2359 -0.5622  1.9386
   17PC     H2B  736   3.017   2.362   6.121 -1.9458  0.2282 -0.5514
   17PC     N31  737   2.908   2.182   6.101  0.6599 -0.1562 -0.4998
   17PC     C33  738   2.897   2.054   6.024  0.0797 -0.5058  0.1605
   17PC     H3A  739   2.840   1.973   6.069 -0.0935 -0.5264 -0.0881
   17PC     H3B  740   2.849   2.082   5.930 -1.2006 -0.6992  0.7409
   17PC     H3C  741   2.997   2.019   5.996 -0.0184 -0.1584 -0.6739
   17PC     C34  742   2.941   2.140   6.239  0.5522  0.0090 -0.5636
   17PC     H4A  743   2.940   2.221   6.312  2.1799  0.1917 -0.7007
   17PC     H4B  744   2.870   2.063   6.270  0.5524  0.7264  1.3807
   17PC     H4C  745   3.041   2.097   6.250  0.2444 -0.7408 -0.6117
   17PC     C35  746   2.770   2.235   6.101 -0.0323 -0.0078  0.5136
   17PC     H5A  747   2.729   2.276   6.008 -1.5732 -2.2125  0.1416
   17PC     H5B  748   2.766   2.313   6.177 -0.0651 -0.1890  0.6983
   17PC     H5C  749   2.699   2.155   6.123 -3.0852  2.4363  0.2932
   17PC     O33  750   3.146   2.693   5.946  0.0478 -0.4962 -0.2313
   17PC     O34  751   2.916   2.626   6.021 -0.2198 -0.1092 -0.2898
   17PC     O21  752   3.049   2.627   5.434 -0.3364 -0.0247 -0.0738
   17PC     C21  753   3.182   2.614   5.405  0.3414  0.3024  0.9466
   17PC     O22  754   3.261   2.565   5.480  0.1613 -0.0042 -0.4451
   18OL     C12  755   3.225   2.668   5.270  0.8860 -0.0161  0.1401
   18OL     H2R  756   3.187   2.767   5.244  1.7285  0.3207  0.1653
   18OL     H2S  757   3.193   2.593   5.197 -1.5290  0.3224  0.7418
   18OL     C13  758   3.374   2.675   5.245  0.1771 -0.6338  0.4323
   18OL     H3R  759   3.417   2.577   5.265  1.7633 -0.6512 -2.4535
   18OL     H3S  760   3.411   2.758   5.305  1.1929 -2.2220  2.1048
   18OL     C14  761   3.429   2.699   5.100  0.0519 -0.0872  0.3178
   18OL     H4R  762   3.522   2.756   5.102  0.3956 -0.6369  0.3024
   18OL     H4S  763   3.352   2.761   5.054 -1.0780 -0.7121  1.3004
   18OL     C15  764   3.453   2.574   5.005  1.4381 -0.0975  0.0401
   18OL     H5R  765   3.362   2.523   5.036  1.8077 -2.0278 -1.8226
   18OL     H5S  766   3.544   2.525   5.037  2.2128  0.2529 -1.5328
   18OL     C16  767   3.446   2.605   4.856  0.6439  0.1017 -0.3757
   18OL     H6R  768   3.345   2.639   4.832 -0.4255 -2.1196  0.6543
   18OL     H6S  769   3.460   2.517   4.794 -2.0452 -0.0532 -0.9082
   18OL     C17  770   3.536   2.728   4.813 -0.4094  0.1503 -0.0865
   18OL     H7R  771   3.642   2.708   4.831 -0.5580  0.2692  1.0120
   18OL     H7S  772   3.509   2.815   4.874 -1.5511 -1.0166  1.1426
   18OL     C18  773   3.524   2.761   4.662  0.3186  0.1967  0.0415
   18OL     H8R  774   3.554   2.677   4.599 -0.8888 -1.2857  1.3634
   18OL     H8S  775   3.595   2.839   4.632  1.1884 -0.7456 -0.4147
   18OL     C19  776   3.381   2.804   4.621 -0.2664  0.2610  0.5110
   18OL     H9R  777   3.310   2.726   4.595 -1.6266  1.1193  1.4661
   18OL    C110  778   3.335   2.929   4.615 -0.6170 -0.4754  0.5679
   18OL    H10R  779   3.234   2.951   4.581 -0.2422  0.2365 -0.1158
   18OL    C111  780   3.411   3.049   4.660 -0.3015  0.2580  0.8167
   18OL    H11R  781   3.496   3.018   4.721 -1.1798  0.4017  2.1412
   18OL    H11S  782   3.352   3.108   4.731 -0.8157 -2.5448  2.8837
   18OL    C112  783   3.460   3.136   4.533 -0.2249 -0.6470  0.5076
   18OL    H12R  784   3.380   3.189   4.482  1.7037  0.7487 -1.2212
   18OL    H12S  785   3.499   3.059   4.466  0.4588 -0.3845  0.6013
   18OL    C113  786   3.568   3.236   4.576  0.2999 -0.3151  0.1700
   18OL    H13R  787   3.645   3.179   4.628  1.6184  0.3886 -0.9262
   18OL    H13S  788   3.526   3.303   4.652  1.2037  0.4365  0.0203
   18OL    C114  789   3.628   3.317   4.461 -0.1212 -0.6300  0.3391
   18OL    H14R  790   3.543   3.375   4.427 -1.7672 -2.3007  1.3843
   18OL    H14S  791   3.654   3.242   4.386  0.3917  2.0298 -2.3174
   18OL    C115  792   3.744   3.411   4.501  0.2053 -0.1508  0.1182
   18OL    H15R  793   3.808   3.352   4.567 -1.3220 -0.3638  1.4747
   18OL    H15S  794   3.716   3.494   4.567  0.1641  0.4558 -0.6455
   18OL    C116  795   3.844   3.459   4.396  0.2794  0.5376  0.2531
   18OL    H16R  796   3.890   3.368   4.357  0.5426  0.3872  0.9031
   18OL    H16S  797   3.924   3.513   4.448  0.1320 -1.0425  2.1884
   18OL    C117  798   3.777   3.539   4.280 -0.2269 -0.5570  0.2297
   18OL    H17R  799   3.719   3.468   4.220 -0.6486  1.6790 -2.1856
   18OL    H17S  800   3.861   3.574   4.219  0.0759 -1.1568  0.2943
   18OL    C118  801   3.691   3.654   4.316  0.4824 -0.1251  0.4734
   18OL    H18R  802   3.660   3.704   4.225  0.9318  1.6697  1.2710
   18OL    H18S  803   3.746   3.730   4.372  0.5634  1.5850 -1.8027
   18OL    H18T  804   3.600   3.626   4.371  0.2729 -1.3015 -0.4278
   19PA    C116  805   3.084   0.481   4.327  0.0148 -0.5464  0.4552
   19PA    H16R  806   3.070   0.587   4.310 -1.0472 -0.6925  0.3718
   19PA    H16S  807   3.048   0.429   4.239 -1.2125  0.9320  0.0479
   19PA    H16T  808   3.193   0.469   4.337  0.1435 -0.8652 -1.1608
   19PA    C115  809   3.020   0.434   4.457 -0.7929 -0.5218 -0.1265
   19PA    H15R  810   3.044   0.509   4.532 -2.1501 -0.3395  0.1389
   19PA    H15S  811   2.915   0.459   4.443 -0.2792  2.7783  1.0155
   19PA    C114  812   3.055   0.293   4.492  0.9650 -0.2439  0.1063
   19PA    H14R  813   3.006   0.222   4.425  0.0396  2.2807 -2.0938
   19PA    H14S  814   3.163   0.282   4.503  1.1667 -0.9809 -2.0412
   19PA    C113  815   3.005   0.270   4.638  0.5953 -0.0810  0.5474
   19PA    H13R  816   3.035   0.174   4.682  1.0035  0.4062  1.3639
   19PA    H13S  817   3.052   0.348   4.699  0.7980  0.4201 -0.2369
   19PA    C112  818   2.852   0.299   4.659  0.4143  0.4480  0.1762
   19PA    H12R  819   2.833   0.405   4.639  1.1320  0.9483  1.9754
   19PA    H12S  820   2.804   0.229   4.591  0.1425  0.2890  0.5330
   19PA    C111  821   2.807   0.264   4.803 -0.3850  0.2253 -0.8090
   19PA    H11R  822   2.701   0.281   4.821 -0.4617 -1.8437  0.9767
   19PA    H11S  823   2.818   0.156   4.812  1.4975  0.3884 -0.5349
   19PA    C110  824   2.899   0.325   4.917 -0.0865  0.1977  0.6784
   19PA    H10R  825   2.998   0.279   4.901  0.3356 -0.0010  3.3495
   19PA    H10S  826   2.913   0.427   4.882 -2.0434  0.5002  0.7269
   19PA     C19  827   2.854   0.301   5.059 -0.0403  0.0306  0.9036
   19PA     H9R  828   2.754   0.342   5.073  0.0844  0.2839  1.0671
   19PA     H9S  829   2.850   0.193   5.074  2.7293 -0.2780 -0.0323
   19PA     C18  830   2.942   0.368   5.168  0.8234 -0.3015  0.9462
   19PA     H8R  831   2.952   0.475   5.150  0.0535 -0.4936 -0.8547
   19PA     H8S  832   2.883   0.353   5.258  0.4191  0.7836  0.8784
   19PA     C17  833   3.068   0.300   5.212 -0.5501 -0.2564 -0.1329
   19PA     H7R  834   3.040   0.204   5.257  0.6971 -0.4937  0.1541
   19PA     H7S  835   3.136   0.281   5.130  0.9117  0.9974  0.7343
   19PA     C16  836   3.132   0.386   5.325 -0.0649 -0.5338  0.5173
   19PA     H6R  837   3.173   0.473   5.273 -0.9425  0.3578  1.2665
   19PA     H6S  838   3.058   0.434   5.391 -1.0468 -1.0646 -0.1657
   19PA     C15  839   3.250   0.342   5.405  0.2051  0.1514  0.6488
   19PA     H5R  840   3.290   0.424   5.465  0.6897  1.2738 -1.1118
   19PA     H5S  841   3.229   0.249   5.458  0.4351 -0.9407 -1.0976
   19PA     C14  842   3.363   0.294   5.312 -0.0204  0.3396 -0.7258
   19PA     H4R  843   3.330   0.210   5.251 -1.2129  0.0784  0.2410
   19PA     H4S  844   3.389   0.371   5.239 -0.6762 -0.3642 -1.7245
   19PA     C13  845   3.495   0.259   5.382  0.1657 -0.2124  0.2221
   19PA     H3R  846   3.462   0.228   5.481  3.1405 -0.2238  1.2874
   19PA     H3S  847   3.546   0.170   5.346 -0.9010  0.2347 -2.7193
   19PA     C12  848   3.590   0.375   5.383 -0.4703 -0.6924 -0.2707
   19PA     H2R  849   3.621   0.396   5.281  1.1898  1.7542  0.6626
   19PA     H2S  850   3.534   0.463   5.413  0.8099 -0.7462  2.6110
   20PC     C11  851   3.718   0.357   5.458  0.0895 -0.3935  0.2746
   20PC     O12  852   3.756   0.247   5.497 -0.5990  0.2307  0.0379
   20PC     O11  853   3.774   0.481   5.483 -0.2264  0.3687 -0.1509
   20PC      C1  854   3.876   0.475   5.588 -0.5563 -0.2050 -0.3728
   20PC      HR  855   3.846   0.424   5.679  1.3677  1.3518  1.2287
   20PC      HS  856   3.956   0.421   5.536 -1.7285 -0.0380 -2.4712
   20PC      C2  857   3.917   0.620   5.635 -0.7475 -0.3733  0.0981
   20PC      HX  858   4.002   0.608   5.703  0.2517 -0.6586 -1.1662
   20PC      C3  859   3.815   0.685   5.727 -0.6932 -0.1412 -0.5591
   20PC      HA  860   3.838   0.791   5.745  1.4760 -0.8761  1.6046
   20PC      HB  861   3.719   0.665   5.681 -0.9332  0.8455 -0.5103
   20PC     O31  862   3.816   0.634   5.867  0.1561 -0.4478 -0.2572
   20PC     P31  863   3.692   0.655   5.966  0.1053 -0.2303  0.1417
   20PC     O32  864   3.633   0.515   5.987 -0.4326  0.7038 -0.2103
   20PC     C31  865   3.697   0.432   6.092 -0.0126  0.3006  0.5692
   20PC     H1A  866   3.806   0.438   6.084  0.1451 -0.5068  1.9396
   20PC     H1B  867   3.677   0.472   6.192 -1.5317  1.2072 -0.0610
   20PC     C32  868   3.641   0.292   6.074  0.1646 -0.0802 -0.3277
   20PC     H2A  869   3.536   0.293   6.104  0.1238  1.3149 -0.4445
   20PC     H2B  870   3.648   0.255   5.972 -0.0689  0.3492 -0.5018
   20PC     N31  871   3.693   0.187   6.170 -0.7357 -0.1447 -0.2837
   20PC     C33  872   3.846   0.196   6.186  0.0718 -0.1100  0.4605
   20PC     H3A  873   3.877   0.277   6.251 -0.5153 -1.8641  3.0543
   20PC     H3B  874   3.877   0.100   6.227  0.3672 -0.5599 -0.7536
   20PC     H3C  875   3.896   0.207   6.089  0.0944 -0.6759  0.4019
   20PC     C34  876   3.623   0.206   6.303  0.2362 -0.0403 -0.0157
   20PC     H4A  877   3.637   0.304   6.348  1.8794  0.4045 -1.3815
   20PC     H4B  878   3.516   0.186   6.300  0.4828 -1.9710  1.7239
   20PC     H4C  879   3.655   0.128   6.373  0.7365 -1.8463 -2.1270
   20PC     C35  880   3.648   0.058   6.118  0.4071  0.2520 -0.0661
   20PC     H5A  881   3.715  -0.014   6.166 -0.1414 -0.3602 -0.2064
   20PC     H5B  882   3.656   0.060   6.009 -1.3426 -0.5277 -0.2294
   20PC     H5C  883   3.545   0.046   6.152  0.3425  0.4257 -0.1994
   20PC     O33  884   3.750   0.708   6.092 -0.4358  0.2300 -0.2710
   20PC     O34  885   3.589   0.728   5.897  0.4896 -0.0119  0.2445
   20PC     O21  886   3.945   0.706   5.521 -0.1101  0.9577 -0.0683
   20PC     C21  887   4.067   0.695   5.457  0.1822 -0.1007 -0.5258
   20PC     O22  888   4.158   0.626   5.489 -0.0147  0.0732 -0.0444
   21OL     C12  889   4.077   0.795   5.352  0.4927  0.3071  0.2151
   21OL     H2R  890   4.142   0.875   5.386  0.1031 -0.0512  1.8710
   21OL     H2S  891   3.980   0.844   5.347 -0.1545 -0.7271  1.9472
   21OL     C13  892   4.117   0.739   5.211 -0.3407  0.6314  0.4941
   21OL     H3R  893   4.212   0.686   5.213 -0.6837  0.0391  1.1830
   21OL     H3S  894   4.132   0.828   5.148 -1.4095  1.2208  1.0403
   21OL     C14  895   4.020   0.657   5.122 -0.1602  0.0998 -0.1699
   21OL     H4R  896   4.081   0.631   5.035 -1.0491  3.6121 -2.0474
   21OL     H4S  897   3.948   0.722   5.074  0.2496  0.9309  0.2957
   21OL     C15  898   3.964   0.531   5.195  0.3741  0.3425 -0.0451
   21OL     H5R  899   3.907   0.562   5.283  0.6587 -1.3118  0.7606
   21OL     H5S  900   4.051   0.481   5.238  0.3807  0.3505 -0.0501
   21OL     C16  901   3.879   0.441   5.116 -0.1402 -0.8373  0.7760
   21OL     H6R  902   3.778   0.480   5.102  0.4651  0.3214 -0.5096
   21OL     H6S  903   3.867   0.353   5.179 -3.3716 -1.3913 -0.3861
   21OL     C17  904   3.945   0.402   4.985  0.1955  0.4663  0.3752
   21OL     H7R  905   4.049   0.378   5.007  0.0293 -0.5148  0.1267
   21OL     H7S  906   3.943   0.485   4.914 -3.4649 -0.9681 -1.4534
   21OL     C18  907   3.891   0.280   4.906 -0.1608 -0.1170  0.2941
   21OL     H8R  908   3.912   0.189   4.962 -1.9548 -0.7221  0.0633
   21OL     H8S  909   3.954   0.268   4.818 -0.3669  1.7642 -0.1546
   21OL     C19  910   3.737   0.272   4.890  0.2013  0.0017  0.0415
   21OL     H9R  911   3.689   0.218   4.970  0.6563 -0.9110 -0.2864
   21OL    C110  912   3.669   0.289   4.777  0.3011 -0.1327 -0.2124
   21OL    H10R  913   3.563   0.263   4.774  0.3175 -0.1194 -1.1446
   21OL    C111  914   3.713   0.368   4.654  1.4454  0.1864  0.1826
   21OL    H11R  915   3.736   0.299   4.573 -0.8565  0.1821 -0.5452
   21OL    H11S  916   3.802   0.428   4.672  0.2047  1.9158  0.7910
   21OL    C112  917   3.606   0.464   4.606 -0.3862 -0.1036 -0.7006
   21OL    H12R  918   3.583   0.540   4.681  1.5065  1.4595 -1.6082
   21OL    H12S  919   3.513   0.407   4.595 -0.5100 -0.4557  1.6524
   21OL    C113  920   3.641   0.536   4.472  0.6737  1.0092  0.7499
   21OL    H13R  921   3.684   0.462   4.404 -2.1880 -0.1692  0.0928
   21OL    H13S  922   3.723   0.603   4.501  0.2696  1.8024  0.0891
   21OL    C114  923   3.531   0.607   4.383 -0.1713 -0.6826  0.1919
   21OL    H14R  924   3.463   0.663   4.448  1.5397  0.1409  1.3367
   21OL    H14S  925   3.475   0.527   4.333  0.0570 -2.0843  2.0571
   21OL    C115  926   3.593   0.697   4.269 -0.0915  0.7646 -0.7793
   21OL    H15R  927   3.506   0.729   4.212 -1.4026 -1.3266 -0.0623
   21OL    H15S  928   3.659   0.635   4.208  0.2520 -0.2037  0.5280
   21OL    C116  929   3.668   0.824   4.315 -0.2009  0.1466  0.1728
   21OL    H16R  930   3.751   0.798   4.381 -0.1607  2.1060  0.9689
   21OL    H16S  931   3.600   0.885   4.374  0.7833  1.6754 -0.2177
   21OL    C117  932   3.708   0.902   4.189 -0.5584  0.6696  0.4067
   21OL    H17R  933   3.767   0.839   4.122  0.2102  1.8754 -0.1004
   21OL    H17S  934   3.779   0.979   4.223  2.5383 -1.3038 -1.1542
   21OL    C118  935   3.608   0.963   4.102  0.4626  0.8618  0.0309
   21OL    H18R  936   3.654   1.022   4.022  0.1408 -0.9472 -1.5892
   21OL    H18S  937   3.542   1.026   4.161 -0.0012  0.0320  0.4174
   21OL    H18T  938   3.532   0.893   4.066 -0.0239  1.1526  0.4890
   22PA    C116  939   6.450   0.704   4.144 -0.3021 -0.2054 -0.3003
   22PA    H16R  940   6.506   0.720   4.052  1.0712 -1.9929  0.1821
   22PA    H16S  941   6.402   0.798   4.170  0.1115 -0.2085  0.5063
   22PA    H16T  942   6.391   0.615   4.121  2.7535 -1.6715 -3.4159
   22PA    C115  943   6.537   0.652   4.263  0.2493 -0.0182 -0.3420
   22PA    H15R  944   6.460   0.634   4.338 -0.8780  5.0131  0.0613
   22PA    H15S  945   6.590   0.561   4.234  0.7102  0.1234  0.0485
   22PA    C114  946   6.634   0.759   4.306  0.0246  0.4560  0.5296
   22PA    H14R  947   6.717   0.773   4.236 -0.2439  2.9340  0.5946
   22PA    H14S  948   6.585   0.857   4.304 -1.3014 -0.1919 -1.5141
   22PA    C113  949   6.688   0.746   4.448  0.4776  0.1310  0.7518
   22PA    H13R  950   6.710   0.640   4.463  1.2642  0.2116  0.2047
   22PA    H13S  951   6.783   0.800   4.450  1.4009 -1.4507  1.5654
   22PA    C112  952   6.595   0.790   4.563  0.0287  0.3865 -0.4162
   22PA    H12R  953   6.578   0.897   4.565 -2.3221  0.0745 -0.9924
   22PA    H12S  954   6.494   0.750   4.550  1.0069 -1.7756 -2.2209
   22PA    C111  955   6.642   0.742   4.702  0.4566  0.0994 -0.1621
   22PA    H11R  956   6.558   0.756   4.770  0.5522 -1.1838  0.2434
   22PA    H11S  957   6.652   0.634   4.710 -2.4443 -0.1295  1.4883
   22PA    C110  958   6.770   0.818   4.756  0.0061 -0.0021 -0.0104
   22PA    H10R  959   6.853   0.782   4.695  1.1537  1.0995  0.8677
   22PA    H10S  960   6.760   0.927   4.750  1.5877  0.1592  0.0322
   22PA     C19  961   6.819   0.787   4.900  0.4511  0.0197 -0.3949
   22PA     H9R  962   6.786   0.685   4.920 -2.1229  1.0206  1.0628
   22PA     H9S  963   6.928   0.791   4.908  0.7264 -3.2555 -1.1705
   22PA     C18  964   6.755   0.892   4.999 -0.4197  0.5973  0.4331
   22PA     H8R  965   6.783   0.990   4.960  0.3859  0.0664 -0.3602
   22PA     H8S  966   6.646   0.882   5.000 -0.7439  3.3657  0.5967
   22PA     C17  967   6.793   0.888   5.147  0.4890 -0.1677  0.4353
   22PA     H7R  968   6.901   0.888   5.162  0.7260  1.9610 -0.8855
   22PA     H7S  969   6.765   0.984   5.192  1.9808  1.4412 -1.8685
   22PA     C16  970   6.732   0.752   5.206 -0.6000 -0.6083 -0.4169
   22PA     H6R  971   6.627   0.779   5.204 -0.0976  1.4989 -0.4790
   22PA     H6S  972   6.761   0.669   5.142 -0.2621 -1.2764  0.5746
   22PA     C15  973   6.776   0.719   5.353 -0.0735  0.4832  0.5944
   22PA     H5R  974   6.775   0.812   5.411 -1.3206 -0.2361  1.7705
   22PA     H5S  975   6.702   0.653   5.398 -2.4989  2.6185  0.0037
   22PA     C14  976   6.921   0.664   5.351  0.3954 -0.1982 -0.0450
   22PA     H4R  977   6.986   0.732   5.296  0.3609  0.2392  0.4464
   22PA     H4S  978   6.960   0.670   5.453 -1.2376  1.7094  0.5591
   22PA     C13  979   6.924   0.521   5.295 -0.2628 -0.4191  0.6882
   22PA     H3R  980   6.859   0.450   5.345  0.6121 -0.6018  1.5812
   22PA     H3S  981   6.901   0.526   5.188  1.9416 -0.4692  0.1640
   22PA     C12  982   7.068   0.462   5.299 -0.3611  0.0421 -0.5655
   22PA     H2R  983   7.061   0.373   5.236 -0.4408  0.2637 -0.8756
   22PA     H2S  984   7.131   0.533   5.244  1.2249  0.8130  2.0620
   23PC     C11  985   7.121   0.462   5.444 -0.4545  0.4839  0.5044
   23PC     O12  986   7.051   0.453   5.545 -0.2184  0.3340 -0.1286
   23PC     O11  987   7.255   0.475   5.454 -0.6815  0.1703 -0.0544
   23PC      C1  988   7.309   0.466   5.590  0.2731 -0.0574  0.1231
   23PC      HR  989   7.415   0.490   5.596  0.9763 -2.5695 -1.0841
   23PC      HS  990   7.256   0.540   5.650 -2.6563  0.2908 -2.6031
   23PC      C2  991   7.303   0.323   5.647  0.1986 -0.4062 -0.3350
   23PC      HX  992   7.201   0.288   5.663 -0.9539  2.5216 -0.6951
   23PC      C3  993   7.373   0.314   5.781  0.2666 -0.5812 -0.0258
   23PC      HA  994   7.478   0.328   5.758 -0.0353  1.1978 -0.5186
   23PC      HB  995   7.334   0.394   5.845 -2.0382 -1.2549 -0.4879
   23PC     O31  996   7.361   0.186   5.845  0.1513 -0.1803  0.0682
   23PC     P31  997   7.240   0.139   5.941 -0.3690  0.0536  0.0783
   23PC     O32  998   7.123   0.093   5.842  0.3782  0.0746  0.4352
   23PC     C31  999   7.127  -0.046   5.797 -0.3218 -0.0194 -0.0294
   23PC     H1A 1000   7.223  -0.055   5.745 -0.6799 -1.7899 -0.4491
   23PC     H1B 1001   7.129  -0.109   5.886  1.8297 -2.0918 -1.4007
   23PC     C32 1002   7.005  -0.063   5.703  0.4966  0.5226  0.6733
   23PC     H2A 1003   7.004   0.019   5.631 -0.2645 -0.2722 -0.2444
   23PC     H2B 1004   7.011  -0.162   5.656  2.8672  1.1838 -0.5952
   23PC     N31 1005   6.860  -0.064   5.771 -0.5414  0.8187  0.0886
   23PC     C33 1006   6.761  -0.108   5.665  0.3263  0.0954 -0.3336
   23PC     H3A 1007   6.769  -0.045   5.576 -1.1547  0.4547 -0.2496
   23PC     H3B 1008   6.788  -0.210   5.637  1.5193 -0.1287  1.5062
   23PC     H3C 1009   6.656  -0.098   5.693  0.1016 -0.7746 -0.7983
   23PC     C34 1010   6.856  -0.155   5.882 -0.5624 -0.3328 -0.4682
   23PC     H4A 1011   6.868  -0.259   5.851 -1.3167 -0.7877  0.6972
   23PC     H4B 1012   6.932  -0.124   5.955 -0.5538  1.6856 -1.2926
   23PC     H4C 1013   6.757  -0.145   5.928 -0.3000  1.1355 -0.1623
   23PC     C35 1014   6.824   0.070   5.809 -0.4901  0.0230  0.4981
   23PC     H5A 1015   6.857   0.137   5.729  3.0842  0.5146  2.1814
   23PC     H5B 1016   6.879   0.098   5.898  0.8110 -1.4988  0.2045
   23PC     H5C 1017   6.720   0.072   5.843  0.1522  0.6505  2.5618
   23PC     O33 1018   7.286   0.018   6.011  0.0724 -0.3785 -0.5649
   23PC     O34 1019   7.203   0.266   6.012 -0.0397 -0.3445 -0.4648
   23PC     O21 1020   7.368   0.218   5.563  0.1551 -0.0063  0.5911
   23PC     C21 1021   7.291   0.144   5.476  0.7595  0.7768  0.6297
   23PC     O22 1022   7.169   0.160   5.460 -0.1786 -0.4335  0.3848
   24OL     C12 1023   7.373   0.039   5.405 -0.0706 -0.8950  0.1503
   24OL     H2R 1024   7.460   0.005   5.463  3.4225  1.8164 -3.0145
   24OL     H2S 1025   7.430   0.079   5.321 -1.2173  0.8002  0.1491
   24OL     C13 1026   7.290  -0.082   5.352  0.0909 -0.2560 -0.2466
   24OL     H3R 1027   7.228  -0.116   5.435 -1.1851 -0.0431 -1.0826
   24OL     H3S 1028   7.365  -0.160   5.338  0.2864  0.4640 -4.9066
   24OL     C14 1029   7.208  -0.062   5.223  0.5809 -0.1273  0.6541
   24OL     H4R 1030   7.139   0.019   5.249  1.5656  0.0810  2.8134
   24OL     H4S 1031   7.159  -0.158   5.208  0.9777 -0.6280  2.3627
   24OL     C15 1032   7.299  -0.028   5.104 -0.1941  0.2395  0.7152
   24OL     H5R 1033   7.361   0.059   5.125 -0.8007  1.4033 -1.9006
   24OL     H5S 1034   7.249  -0.006   5.009  3.0293  1.4515 -0.8636
   24OL     C16 1035   7.397  -0.151   5.068 -0.1478  0.0555  0.1424
   24OL     H6R 1036   7.483  -0.144   5.135 -0.5204  0.0701  0.6249
   24OL     H6S 1037   7.437  -0.139   4.967  0.9152 -0.7752  0.4442
   24OL     C17 1038   7.337  -0.291   5.057  0.0382  0.2103 -0.2373
   24OL     H7R 1039   7.306  -0.324   5.156  1.5050  0.3022  0.2806
   24OL     H7S 1040   7.414  -0.361   5.025  0.0281  0.4497 -0.7946
   24OL     C18 1041   7.214  -0.302   4.956  0.2786  0.0685  0.5467
   24OL     H8R 1042   7.258  -0.272   4.861  2.1127 -0.4194  1.2008
   24OL     H8S 1043   7.140  -0.229   4.990  1.2239  1.6970 -0.7005
   24OL     C19 1044   7.158  -0.444   4.954  0.4674  0.1063 -0.3672
   24OL     H9R 1045   7.141  -0.490   5.051 -1.0550 -0.8639 -1.0632
   24OL    C110 1046   7.153  -0.519   4.846  0.0293 -0.3053 -0.1422
   24OL    H10R 1047   7.143  -0.627   4.854  0.7705 -0.3563  0.2787
   24OL    C111 1048   7.169  -0.486   4.701 -0.5613 -0.1329 -0.0277
   24OL    H11R 1049   7.255  -0.422   4.678 -1.0487  0.5116 -0.1056
   24OL    H11S 1050   7.091  -0.412   4.679 -0.4726  0.4763  1.5926
   24OL    C112 1051   7.163  -0.607   4.609  0.8615  0.2051  0.2718
   24OL    H12R 1052   7.088  -0.682   4.635  1.1970 -1.1032 -2.1781
   24OL    H12S 1053   7.259  -0.659   4.619  1.4255  0.0647 -3.8405
   24OL    C113 1054   7.155  -0.579   4.463  0.4133  0.7047 -0.2224
   24OL    H13R 1055   7.178  -0.680   4.428 -0.2768 -0.5193  2.6109
   24OL    H13S 1056   7.241  -0.515   4.443  0.3256  1.6576  2.1627
   24OL    C114 1057   7.023  -0.525   4.412 -0.0595  0.0217 -0.8343
   24OL    H14R 1058   7.025  -0.419   4.437  0.0921 -0.2162  0.1749
   24OL    H14S 1059   6.939  -0.579   4.455  1.1938 -2.5707 -1.4587
   24OL    C115 1060   7.020  -0.553   4.258  0.0088  0.2971  0.0240
   24OL    H15R 1061   6.924  -0.542   4.207 -0.8110 -0.1664  1.4062
   24OL    H15S 1062   7.031  -0.661   4.245  0.3738  0.4931 -1.3919
   24OL    C116 1063   7.133  -0.474   4.195 -0.6508 -0.5509  0.2107
   24OL    H16R 1064   7.230  -0.513   4.226  0.0535 -0.1584 -1.3896
   24OL    H16S 1065   7.134  -0.368   4.222 -1.8143 -0.4354 -0.1450
   24OL    C117 1066   7.133  -0.499   4.037 -0.4052 -0.5547  0.3350
   24OL    H17R 1067   7.035  -0.472   3.997  0.3248 -0.5656 -1.5597
   24OL    H17S 1068   7.144  -0.605   4.018  0.0299 -0.2328 -1.3095
   24OL    C118 1069   7.246  -0.421   3.960  0.2972  0.1985 -0.0576
   24OL    H18R 1070   7.342  -0.431   4.012  0.9680  1.6364 -0.9458
   24OL    H18S 1071   7.232  -0.313   3.946  0.4695  0.0952 -1.1607
   24OL    H18T 1072   7.264  -0.469   3.863  4.0260  2.0046 -0.4327
   25PA    C116 1073   5.717   1.166   4.027 -0.6108  0.7269 -0.5269
   25PA    H16R 1074   5.763   1.109   4.108 -3.1873 -0.8011  0.0125
   25PA    H16S 1075   5.704   1.267   4.065 -0.4250  1.1271 -1.5034
   25PA    H16T 1076   5.778   1.171   3.937  1.1441  0.6366  0.6104
   25PA    C115 1077   5.573   1.116   3.999 -0.3145 -0.1681  0.3342
   25PA    H15R 1078   5.499   1.191   3.972 -0.9245 -1.7194 -2.6311
   25PA    H15S 1079   5.589   1.062   3.906 -1.4406  1.1661 -0.6773
   25PA    C114 1080   5.519   1.026   4.109 -0.9431 -0.3104 -0.0426
   25PA    H14R 1081   5.430   0.973   4.074  0.1882 -2.6726  0.4715
   25PA    H14S 1082   5.600   0.957   4.133 -0.9643 -1.0077 -1.8186
   25PA    C113 1083   5.497   1.097   4.238 -0.0221  0.6184 -0.6664
   25PA    H13R 1084   5.585   1.141   4.286  0.7691 -3.0195  1.6379
   25PA    H13S 1085   5.436   1.184   4.211  1.3623  1.1613 -2.2191
   25PA    C112 1086   5.426   1.012   4.341  0.6364  0.0545  0.1226
   25PA    H12R 1087   5.319   1.003   4.321  0.5072 -2.1634  1.4403
   25PA    H12S 1088   5.465   0.910   4.340  0.7315  0.0890  0.2639
   25PA    C111 1089   5.432   1.064   4.491  0.1703 -0.2767  0.3318
   25PA    H11R 1090   5.527   1.106   4.524 -0.8013  0.7380  1.9600
   25PA    H11S 1091   5.359   1.145   4.487 -0.0991 -0.5125 -3.2895
   25PA    C110 1092   5.385   0.967   4.596  0.6091 -0.0041 -0.5826
   25PA    H10R 1093   5.286   0.935   4.564  0.5570  1.5588 -2.1388
   25PA    H10S 1094   5.449   0.878   4.591  0.9474  0.2370 -0.5903
   25PA     C19 1095   5.391   1.030   4.735  0.3963 -0.2888  0.5980
   25PA     H9R 1096   5.361   0.955   4.809  0.9712 -0.1513  0.9761
   25PA     H9S 1097   5.493   1.053   4.765  1.0292 -2.1551  0.0029
   25PA     C18 1098   5.313   1.157   4.745  0.1287 -0.8648 -0.6841
   25PA     H8R 1099   5.349   1.232   4.676  2.1154  0.0210  1.1973
   25PA     H8S 1100   5.211   1.137   4.711 -1.0990  1.9299  0.9732
   25PA     C17 1101   5.297   1.219   4.887  0.8867 -0.1663 -0.5350
   25PA     H7R 1102   5.233   1.308   4.888  1.5648  0.3476  1.4221
   25PA     H7S 1103   5.239   1.146   4.944 -0.4065  1.0074 -0.2894
   25PA     C16 1104   5.421   1.250   4.972  0.1045 -0.3659 -0.0204
   25PA     H6R 1105   5.460   1.152   5.000 -1.3382 -0.7531  0.6817
   25PA     H6S 1106   5.487   1.302   4.902 -0.5312 -0.8832 -1.0070
   25PA     C15 1107   5.402   1.356   5.086  0.8979  0.0678  0.1305
   25PA     H5R 1108   5.494   1.370   5.144  0.8072 -1.6984  0.7772
   25PA     H5S 1109   5.380   1.453   5.040  2.8073 -0.3727 -1.9078
   25PA     C14 1110   5.283   1.311   5.173  0.0205 -0.0738  0.3947
   25PA     H4R 1111   5.240   1.385   5.240 -0.6618 -1.1062  1.1364
   25PA     H4S 1112   5.193   1.299   5.112 -0.3652 -0.3285  0.9985
   25PA     C13 1113   5.313   1.178   5.247 -0.4230 -0.1632  0.4231
   25PA     H3R 1114   5.221   1.169   5.306 -2.1171  1.4993 -1.8069
   25PA     H3S 1115   5.332   1.100   5.173 -1.0428 -0.6091  0.7265
   25PA     C12 1116   5.438   1.203   5.329  1.1148  0.1272 -0.2003
   25PA     H2R 1117   5.524   1.208   5.262  0.7532 -3.7708 -1.1701
   25PA     H2S 1118   5.415   1.300   5.373 -2.6512 -0.3422 -0.7960
   26PC     C11 1119   5.466   1.090   5.431  0.1165  0.4231 -0.9024
   26PC     O12 1120   5.468   1.106   5.549 -0.1478 -0.9768  0.7424
   26PC     O11 1121   5.487   0.973   5.370  0.4271 -0.0246  0.3612
   26PC      C1 1122   5.503   0.852   5.456  0.0705 -0.6575  0.1533
   26PC      HR 1123   5.557   0.774   5.401 -1.5613 -2.3066  0.7604
   26PC      HS 1124   5.560   0.874   5.546 -0.3660  1.4057 -0.0393
   26PC      C2 1125   5.364   0.789   5.494 -0.6426 -0.6215  0.0208
   26PC      HX 1126   5.315   0.858   5.562  0.1356 -0.9788  0.9654
   26PC      C3 1127   5.387   0.649   5.570  0.0852 -0.2528  0.0238
   26PC      HA 1128   5.297   0.594   5.597 -0.9977  1.4416  0.0231
   26PC      HB 1129   5.451   0.591   5.503 -1.0757  1.4202 -2.6777
   26PC     O31 1130   5.455   0.671   5.693 -0.1271 -0.6570  0.1018
   26PC     P31 1131   5.374   0.700   5.833  0.4169 -0.6800 -0.1192
   26PC     O32 1132   5.399   0.855   5.852 -0.0386  0.7269  0.4612
   26PC     C31 1133   5.533   0.895   5.866  0.5746 -0.2988 -0.7069
   26PC     H1A 1134   5.578   0.853   5.957 -1.2349 -0.8763 -0.0329
   26PC     H1B 1135   5.586   0.855   5.780  2.4406 -2.0734  1.1450
   26PC     C32 1136   5.537   1.053   5.866  0.3736  0.2742  0.0262
   26PC     H2A 1137   5.478   1.095   5.784  0.1176  1.0111  0.5784
   26PC     H2B 1138   5.493   1.098   5.955  4.7922 -1.1563  3.2738
   26PC     N31 1139   5.674   1.114   5.841  0.3422 -0.4470 -0.7124
   26PC     C33 1140   5.647   1.248   5.778  0.4247  0.3881 -0.3503
   26PC     H3A 1141   5.587   1.308   5.846  1.1716  0.0243  0.6557
   26PC     H3B 1142   5.738   1.302   5.752 -0.4843  2.4258  0.5056
   26PC     H3C 1143   5.596   1.227   5.684  0.3566  0.0030 -0.2301
   26PC     C34 1144   5.753   1.134   5.970 -0.0506 -0.0611 -0.2477
   26PC     H4A 1145   5.839   1.191   5.936 -0.8683  1.7360  0.5904
   26PC     H4B 1146   5.684   1.183   6.039 -1.7933 -2.6023 -0.0209
   26PC     H4C 1147   5.791   1.044   6.020  2.8016  0.0835 -1.9152
   26PC     C35 1148   5.745   1.040   5.742  0.0467 -0.3910 -0.2368
   26PC     H5A 1149   5.830   1.106   5.722  1.0808 -1.4742  0.4414
   26PC     H5B 1150   5.693   1.033   5.646  2.1195 -1.7046 -1.3423
   26PC     H5C 1151   5.774   0.946   5.790  2.0600  1.0233  1.5343
   26PC     O33 1152   5.232   0.685   5.809 -0.6756 -0.2042  0.8006
   26PC     O34 1153   5.437   0.618   5.938 -0.8584 -0.0667 -0.2098
   26PC     O21 1154   5.289   0.763   5.371  0.6537 -0.0044  0.2684
   26PC     C21 1155   5.194   0.857   5.341  0.4894  0.9446  0.6664
   26PC     O22 1156   5.165   0.952   5.406  0.0365 -0.0506 -0.2274
   27OL     C12 1157   5.112   0.818   5.216  0.1585  0.1227 -0.6165
   27OL     H2R 1158   5.018   0.874   5.218 -0.6815 -1.2835  0.5586
   27OL     H2S 1159   5.065   0.720   5.217 -2.5522  1.3277 -0.1595
   27OL     C13 1160   5.184   0.845   5.086 -0.9313 -0.5215  0.4431
   27OL     H3R 1161   5.285   0.805   5.078  0.3029  2.4675 -0.2664
   27OL     H3S 1162   5.198   0.953   5.083 -1.5513 -0.4423  0.3726
   27OL     C14 1163   5.108   0.814   4.963  0.4390 -0.0685  0.9031
   27OL     H4R 1164   5.146   0.863   4.873 -0.2875 -1.3080 -0.1322
   27OL     H4S 1165   5.007   0.856   4.964  0.3830 -0.1058 -0.5118
   27OL     C15 1166   5.096   0.667   4.927 -0.5508 -0.3788  0.8185
   27OL     H5R 1167   5.083   0.600   5.012 -0.1356 -0.3582  0.8966
   27OL     H5S 1168   5.191   0.641   4.881 -0.4003  1.3949  0.0293
   27OL     C16 1169   4.991   0.641   4.808 -0.2513 -0.0622 -0.0027
   27OL     H6R 1170   4.894   0.669   4.848  0.0177  0.8379  0.0285
   27OL     H6S 1171   4.998   0.533   4.789  1.4642 -0.3773  2.0229
   27OL     C17 1172   5.014   0.720   4.682  0.3827  0.2318  0.7281
   27OL     H7R 1173   5.114   0.698   4.644  0.6822 -0.6672  1.9854
   27OL     H7S 1174   5.016   0.827   4.705 -2.3917 -0.1335  3.3491
   27OL     C18 1175   4.905   0.690   4.575 -0.1132  0.5339 -0.3840
   27OL     H8R 1176   4.893   0.581   4.575 -2.0015  0.6599 -2.9142
   27OL     H8S 1177   4.935   0.721   4.475  0.2095  2.5561  0.2995
   27OL     C19 1178   4.772   0.769   4.610 -0.4755  0.0469  0.0658
   27OL     H9R 1179   4.759   0.799   4.714 -2.0190 -1.2863  0.2941
   27OL    C110 1180   4.675   0.784   4.518 -0.1551 -0.0641 -0.4419
   27OL    H10R 1181   4.576   0.818   4.549  0.0205 -2.4690  3.3207
   27OL    C111 1182   4.683   0.751   4.367  0.0943  0.0806  0.5296
   27OL    H11R 1183   4.598   0.693   4.331  0.1635 -0.2536  0.8881
   27OL    H11S 1184   4.773   0.691   4.348 -0.9209 -1.2993 -0.1148
   27OL    C112 1185   4.669   0.884   4.273 -0.2539  0.7844 -0.2594
   27OL    H12R 1186   4.570   0.923   4.300 -0.2800  0.9753 -0.6188
   27OL    H12S 1187   4.671   0.843   4.172  1.3780 -0.9909  0.4437
   27OL    C113 1188   4.778   0.979   4.309 -0.4251  0.1247  0.7671
   27OL    H13R 1189   4.776   1.001   4.416 -2.3714 -1.4562  1.0984
   27OL    H13S 1190   4.763   1.077   4.262  1.5263  0.6763  1.1764
   27OL    C114 1191   4.919   0.927   4.270  0.0790 -0.2220 -0.4676
   27OL    H14R 1192   4.923   0.819   4.290 -2.1246  0.2221  3.2839
   27OL    H14S 1193   4.989   0.957   4.349  2.2028 -3.0920 -1.0705
   27OL    C115 1194   4.963   0.964   4.123  0.0388  0.0734  0.0658
   27OL    H15R 1195   4.955   1.072   4.109 -2.9334 -0.1179 -0.1952
   27OL    H15S 1196   4.886   0.930   4.054  0.9786 -0.8713 -0.5523
   27OL    C116 1197   5.099   0.908   4.079 -0.1862  0.4037 -0.3631
   27OL    H16R 1198   5.114   0.801   4.094  2.7526  0.8167  0.2960
   27OL    H16S 1199   5.174   0.956   4.143  0.1660 -1.0912  0.3928
   27OL    C117 1200   5.140   0.932   3.934 -0.0096  0.0941  0.2073
   27OL    H17R 1201   5.049   0.910   3.878 -1.9513  2.3699  2.2541
   27OL    H17S 1202   5.227   0.871   3.910  0.3854 -0.5987  3.0447
   27OL    C118 1203   5.173   1.081   3.909 -0.3378  0.3662  0.0083
   27OL    H18R 1204   5.229   1.095   3.816 -0.0630  0.4405  0.1816
   27OL    H18S 1205   5.230   1.127   3.991 -0.6814 -0.0716  0.4969
   27OL    H18T 1206   5.077   1.127   3.887 -0.1768 -0.3967 -2.5144
   28PA    C116 1207   2.348   1.729   4.047 -0.6485 -0.4962 -0.6381
   28PA    H16R 1208   2.287   1.758   3.961 -1.6749  0.9892  0.5417
   28PA    H16S 1209   2.331   1.625   4.075  3.1505 -0.3502  3.1062
   28PA    H16T 1210   2.449   1.745   4.008 -0.1566 -0.7406  0.4904
   28PA    C115 1211   2.324   1.822   4.167  0.2681 -0.4948  0.1140
   28PA    H15R 1212   2.377   1.796   4.259  0.8479 -0.1460 -0.1142
   28PA    H15S 1213   2.341   1.926   4.139  0.4127  0.0554  2.0800
   28PA    C114 1214   2.171   1.831   4.206 -0.4442  0.2360  0.5843
   28PA    H14R 1215   2.109   1.857   4.120  2.1364 -2.1649 -2.2755
   28PA    H14S 1216   2.132   1.732   4.231  1.9885 -0.7501  0.7601
   28PA    C113 1217   2.155   1.926   4.323 -0.2703  0.4060 -0.2288
   28PA    H13R 1218   2.201   1.896   4.417  0.4415 -3.6109 -1.6809
   28PA    H13S 1219   2.197   2.022   4.294 -0.3297  0.4068 -0.3090
   28PA    C112 1220   1.999   1.940   4.339 -0.1016  0.4828  0.6011
   28PA    H12R 1221   1.959   1.979   4.245  2.4333 -0.6742 -1.0562
   28PA    H12S 1222   1.968   1.836   4.354  3.2966 -0.7991 -0.2616
   28PA    C111 1223   1.958   2.019   4.469 -0.7040  0.2964  0.9371
   28PA    H11R 1224   2.012   1.983   4.557 -0.6824  0.5442  1.0284
   28PA    H11S 1225   1.979   2.124   4.448 -0.7277  0.5311  2.0288
   28PA    C110 1226   1.811   2.011   4.502 -0.2452  0.4372 -0.2710
   28PA    H10R 1227   1.746   2.060   4.429 -1.9033  0.6925  1.2819
   28PA    H10S 1228   1.774   1.908   4.504  0.2360  0.2601 -0.6223
   28PA     C19 1229   1.785   2.093   4.632 -0.3082 -0.1687 -1.0839
   28PA     H9R 1230   1.857   2.055   4.705 -1.1252  0.0648 -0.1288
   28PA     H9S 1231   1.819   2.197   4.625  0.8909 -0.4290  0.3319
   28PA     C18 1232   1.644   2.096   4.699 -0.3149 -0.1631  0.0941
   28PA     H8R 1233   1.576   2.147   4.631 -0.6941 -0.9953 -0.1623
   28PA     H8S 1234   1.601   1.997   4.709  2.3124 -1.2800  1.5335
   28PA     C17 1235   1.650   2.159   4.839 -0.1878  0.1706  0.3753
   28PA     H7R 1236   1.708   2.252   4.834  1.2335 -0.5379  2.3510
   28PA     H7S 1237   1.551   2.189   4.874 -0.2169  1.1428 -0.4903
   28PA     C16 1238   1.721   2.073   4.948 -0.4779  0.0539  0.5637
   28PA     H6R 1239   1.689   1.971   4.926 -1.4203  1.0184 -3.3438
   28PA     H6S 1240   1.828   2.066   4.931 -0.6382  0.1827 -0.5602
   28PA     C15 1241   1.685   2.107   5.092 -0.4237 -1.0275  1.0579
   28PA     H5R 1242   1.578   2.125   5.103 -0.6515 -2.7729  1.9958
   28PA     H5S 1243   1.717   2.025   5.156 -1.4918 -1.5973  0.8636
   28PA     C14 1244   1.759   2.230   5.136 -1.0531 -0.2462 -1.0835
   28PA     H4R 1245   1.867   2.209   5.138 -1.0930 -0.3857 -0.2158
   28PA     H4S 1246   1.744   2.315   5.069  0.2623  1.8905  1.1733
   28PA     C13 1247   1.706   2.292   5.275 -1.0214 -0.0240 -0.7657
   28PA     H3R 1248   1.600   2.316   5.267 -1.3682  0.5968  3.6058
   28PA     H3S 1249   1.717   2.214   5.350 -0.7534  2.3380  1.8136
   28PA     C12 1250   1.787   2.412   5.326 -0.3572 -0.0272 -0.0541
   28PA     H2R 1251   1.888   2.377   5.349  0.0124  0.7514 -0.4887
   28PA     H2S 1252   1.799   2.488   5.249  1.2191 -0.2413 -0.0434
   29PC     C11 1253   1.725   2.463   5.449 -0.2644 -0.4362  0.1251
   29PC     O12 1254   1.725   2.393   5.547 -0.4101  0.3882  0.4595
   29PC     O11 1255   1.649   2.574   5.441  0.0923  0.2542 -0.4778
   29PC      C1 1256   1.618   2.651   5.568  0.3189 -0.5097  1.0801
   29PC      HR 1257   1.541   2.725   5.542 -2.0729 -2.9078  0.8215
   29PC      HS 1258   1.573   2.590   5.647 -1.7536 -0.3312  0.1201
   29PC      C2 1259   1.747   2.722   5.618  0.3376  0.4295 -0.1774
   29PC      HX 1260   1.816   2.640   5.642  0.0526 -0.1548 -1.2674
   29PC      C3 1261   1.720   2.811   5.743  0.4405  0.4427 -0.3628
   29PC      HA 1262   1.625   2.860   5.723  0.6043  0.7406 -0.4223
   29PC      HB 1263   1.703   2.763   5.839 -0.7837  2.2898  0.4230
   29PC     O31 1264   1.819   2.919   5.766  0.1839  0.2253 -0.6045
   29PC     P31 1265   1.958   2.884   5.838 -0.2774  0.2075  0.4164
   29PC     O32 1266   1.924   2.896   5.991  0.0612  0.1292  0.9159
   29PC     C31 1267   1.905   3.021   6.050  0.6302 -0.0984 -0.1301
   29PC     H1A 1268   1.999   3.077   6.042  0.7719 -0.1306  1.1510
   29PC     H1B 1269   1.826   3.072   5.995  1.3296 -0.0213 -1.0914
   29PC     C32 1270   1.870   2.999   6.203 -0.7651 -0.6325  0.8182
   29PC     H2A 1271   1.859   3.101   6.242  1.6385 -0.6859  1.8143
   29PC     H2B 1272   1.775   2.945   6.206 -0.7172 -0.9385 -1.4746
   29PC     N31 1273   1.964   2.936   6.300  0.1589  0.4235 -0.6010
   29PC     C33 1274   1.889   2.914   6.427  0.3158 -0.7621  0.0333
   29PC     H3A 1275   1.951   2.866   6.502  0.7937 -0.0861  0.0735
   29PC     H3B 1276   1.866   3.016   6.459  0.9015 -0.7931  0.5536
   29PC     H3C 1277   1.805   2.850   6.400 -1.1039  0.8641  0.4124
   29PC     C34 1278   1.997   2.797   6.252 -0.1486 -0.2694  0.3391
   29PC     H4A 1279   1.905   2.752   6.216 -0.0612 -0.3785  0.2544
   29PC     H4B 1280   2.059   2.806   6.163  0.4259 -1.7354  0.5607
   29PC     H4C 1281   2.059   2.738   6.320  0.8124  0.0628 -0.2364
   29PC     C35 1282   2.083   3.023   6.323  0.0925 -0.4616 -0.1970
   29PC     H5A 1283   2.151   2.980   6.398  0.3447  0.5819  0.1943
   29PC     H5B 1284   2.058   3.121   6.364 -1.3399 -0.1756 -1.6894
   29PC     H5C 1285   2.139   3.030   6.230 -1.8613 -2.6778 -1.6413
   29PC     O33 1286   1.993   2.741   5.801 -0.2117 -0.2468  0.1765
   29PC     O34 1287   2.058   2.986   5.810  0.5514 -0.5754  0.3865
   29PC     O21 1288   1.794   2.816   5.523 -0.0702  0.3601  1.1211
   29PC     C21 1289   1.900   2.793   5.444  0.0822 -0.2154  0.3849
   29PC     O22 1290   1.960   2.689   5.433  0.9548 -0.0059  0.7771
   30OL     C12 1291   1.935   2.912   5.354 -0.3851 -0.2119 -0.9051
   30OL     H2R 1292   2.038   2.901   5.319 -0.6438  0.7155 -1.9958
   30OL     H2S 1293   1.921   3.000   5.417  2.4484 -1.7219  2.1585
   30OL     C13 1294   1.844   2.915   5.238 -0.1020 -0.4445 -0.0549
   30OL     H3R 1295   1.853   2.819   5.187  1.7375  0.7004 -2.0714
   30OL     H3S 1296   1.879   2.989   5.166 -2.2398  0.9487  0.2430
   30OL     C14 1297   1.700   2.948   5.271  0.2669 -0.1397 -0.2194
   30OL     H4R 1298   1.693   3.035   5.336 -0.3334 -0.4246  0.1155
   30OL     H4S 1299   1.659   2.861   5.323  2.7010 -1.4943 -0.4145
   30OL     C15 1300   1.613   2.977   5.146 -0.6558 -0.0134 -0.0172
   30OL     H5R 1301   1.659   3.067   5.103  0.4259 -0.6001 -0.1254
   30OL     H5S 1302   1.509   2.995   5.173 -0.4484  0.1964  0.6802
   30OL     C16 1303   1.611   2.866   5.039 -0.6754 -0.1105  0.4186
   30OL     H6R 1304   1.699   2.881   4.977 -0.8953 -1.6948 -0.3255
   30OL     H6S 1305   1.528   2.881   4.970 -0.3148 -0.0847 -0.0074
   30OL     C17 1306   1.612   2.718   5.083 -0.5005 -0.6242  0.3616
   30OL     H7R 1307   1.548   2.709   5.171 -0.5969  1.6874  0.5843
   30OL     H7S 1308   1.714   2.691   5.108  0.3351  1.2033 -0.8038
   30OL     C18 1309   1.575   2.616   4.972  0.3623  0.1849  0.0211
   30OL     H8R 1310   1.581   2.514   5.009  2.1098 -0.8979 -2.9418
   30OL     H8S 1311   1.647   2.619   4.890 -2.5348 -0.0312 -2.7442
   30OL     C19 1312   1.439   2.643   4.913  0.2957  0.1805 -0.0458
   30OL     H9R 1313   1.352   2.613   4.971 -0.3571  1.7002 -0.1816
   30OL    C110 1314   1.421   2.705   4.799 -0.1108 -0.0673  0.2644
   30OL    H10R 1315   1.320   2.724   4.765 -0.6562 -1.7204  0.8592
   30OL    C111 1316   1.526   2.779   4.711  0.2299  0.7804 -0.9926
   30OL    H11R 1317   1.616   2.785   4.772  0.0513  1.9405 -0.8178
   30OL    H11S 1318   1.486   2.878   4.688  0.3899  1.4917  1.5581
   30OL    C112 1319   1.561   2.705   4.574 -0.7583 -0.7294 -0.9406
   30OL    H12R 1320   1.459   2.696   4.536 -1.5808 -0.7711  1.1553
   30OL    H12S 1321   1.603   2.605   4.587  1.4838  0.0705 -1.7260
   30OL    C113 1322   1.653   2.781   4.477  0.1333  0.4828  0.0469
   30OL    H13R 1323   1.613   2.881   4.456 -0.0258  0.8783  2.0288
   30OL    H13S 1324   1.670   2.728   4.383 -0.2131  0.7461 -0.1681
   30OL    C114 1325   1.790   2.800   4.534  0.2663  0.5582 -0.7589
   30OL    H14R 1326   1.785   2.831   4.639 -0.7669 -0.4051 -0.4933
   30OL    H14S 1327   1.820   2.886   4.475 -1.5715  2.7865  1.3470
   30OL    C115 1328   1.897   2.694   4.528 -0.0164 -0.0112 -0.4330
   30OL    H15R 1329   1.895   2.628   4.615 -0.6987 -2.1205 -1.9615
   30OL    H15S 1330   1.991   2.748   4.542  0.4216 -0.8108 -0.2619
   30OL    C116 1331   1.912   2.609   4.401  0.3735 -0.1457  0.2312
   30OL    H16R 1332   1.915   2.672   4.312  0.1954 -0.9490 -0.3516
   30OL    H16S 1333   1.818   2.554   4.397  0.0580  0.1327  2.5303
   30OL    C117 1334   2.032   2.528   4.395 -0.0470  0.1265 -0.4381
   30OL    H17R 1335   2.031   2.459   4.480  0.4045  0.8970  0.2103
   30OL    H17S 1336   2.124   2.586   4.405  1.1536 -1.4833 -1.5803
   30OL    C118 1337   2.030   2.436   4.271  0.6124  0.3276  0.2087
   30OL    H18R 1338   2.094   2.348   4.284 -2.3420 -1.9318  0.3945
   30OL    H18S 1339   2.065   2.489   4.182  3.6699 -0.3316  0.9050
   30OL    H18T 1340   1.931   2.391   4.261  1.4627 -1.4577 -0.5524
   31PA    C116 1341   4.038   0.657   4.074  0.8185 -0.4460 -0.1102
   31PA    H16R 1342   3.985   0.720   4.003  2.0857 -0.0329 -0.7166
   31PA    H16S 1343   4.133   0.625   4.031  1.5886  0.9704  0.4575
   31PA    H16T 1344   4.049   0.721   4.163  1.1701  0.3471 -0.7087
   31PA    C115 1345   3.952   0.534   4.095 -0.1991  0.2912 -0.0724
   31PA    H15R 1346   3.862   0.557   4.154  1.8199  0.7135  3.1133
   31PA    H15S 1347   3.929   0.490   3.998  0.6182 -0.0628 -0.1116
   31PA    C114 1348   4.030   0.430   4.184 -0.2122 -0.0787 -0.4075
   31PA    H14R 1349   3.986   0.332   4.164 -1.4423  0.8102 -2.2795
   31PA    H14S 1350   4.136   0.434   4.158 -0.7669  2.7649 -2.7128
   31PA    C113 1351   4.012   0.455   4.338 -0.0728  0.1636  0.1738
   31PA    H13R 1352   4.045   0.555   4.366 -0.6899  1.0971 -2.1574
   31PA    H13S 1353   3.905   0.447   4.357 -0.2810 -1.4670 -1.3772
   31PA    C112 1354   4.075   0.348   4.431 -0.0048 -0.7044 -0.9906
   31PA    H12R 1355   4.182   0.346   4.411 -0.0620  1.3977 -1.7728
   31PA    H12S 1356   4.056   0.381   4.534 -1.8339 -1.3876 -1.0694
   31PA    C111 1357   4.002   0.210   4.414 -0.3109 -0.3361 -0.8567
   31PA    H11R 1358   3.895   0.230   4.426  0.2638  2.1533  1.1943
   31PA    H11S 1359   4.029   0.177   4.314  0.5681  2.6290 -1.7219
   31PA    C110 1360   4.050   0.107   4.510 -0.6173 -0.6407 -0.6489
   31PA    H10R 1361   4.028   0.144   4.610  0.9503 -0.8694 -0.1919
   31PA    H10S 1362   3.981   0.023   4.502  1.3701 -2.4193 -0.3492
   31PA     C19 1363   4.193   0.061   4.485 -0.0377  0.1467 -0.0649
   31PA     H9R 1364   4.192   0.009   4.389 -2.2103 -2.2898  1.1633
   31PA     H9S 1365   4.255   0.151   4.484 -0.6051  0.5519 -1.1963
   31PA     C18 1366   4.244  -0.038   4.597  0.2685 -0.3113 -0.7582
   31PA     H8R 1367   4.173  -0.118   4.617  0.1905 -0.5642 -1.9685
   31PA     H8S 1368   4.341  -0.083   4.574 -0.7632 -2.2823 -1.4845
   31PA     C17 1369   4.259   0.034   4.734 -0.6756 -0.4815 -0.1779
   31PA     H7R 1370   4.332   0.113   4.720 -0.6792 -0.7738 -2.2862
   31PA     H7S 1371   4.168   0.083   4.770  0.0366  0.5022  0.3072
   31PA     C16 1372   4.325  -0.056   4.832  0.0956  0.0367  0.0226
   31PA     H6R 1373   4.242  -0.106   4.882  1.9101 -1.6161  1.5797
   31PA     H6S 1374   4.385  -0.137   4.789  0.3354 -0.8727  1.9508
   31PA     C15 1375   4.402   0.003   4.954 -0.6496 -0.7044  0.5860
   31PA     H5R 1376   4.492   0.054   4.919 -1.5928  1.9150  1.7343
   31PA     H5S 1377   4.340   0.081   5.000  0.1234 -0.4328  1.1836
   31PA     C14 1378   4.443  -0.103   5.062  0.4198  0.7937 -0.3395
   31PA     H4R 1379   4.347  -0.135   5.103  0.6943 -0.6954 -0.7733
   31PA     H4S 1380   4.483  -0.191   5.012  1.3803 -0.5223  2.5336
   31PA     C13 1381   4.545  -0.055   5.166  0.1426  0.0635 -0.4208
   31PA     H3R 1382   4.643  -0.027   5.127  0.3595  0.8831  0.6623
   31PA     H3S 1383   4.505   0.040   5.203 -0.2363  0.7521 -2.4503
   31PA     C12 1384   4.564  -0.155   5.284 -0.3177 -0.2136  0.0419
   31PA     H2R 1385   4.466  -0.189   5.319  0.7104  0.0045  3.5431
   31PA     H2S 1386   4.627  -0.238   5.250  0.3394  0.5020 -0.5197
   32PC     C11 1387   4.632  -0.088   5.400  0.1881 -0.0476  0.3206
   32PC     O12 1388   4.569  -0.054   5.492  0.5529  0.3254  0.0399
   32PC     O11 1389   4.765  -0.088   5.397  0.2139  0.8767 -0.2573
   32PC      C1 1390   4.841  -0.047   5.507  0.7488  0.1387 -0.6627
   32PC      HR 1391   4.943  -0.037   5.469  0.7325 -0.4032 -0.8640
   32PC      HS 1392   4.802   0.044   5.553 -0.7839 -1.9981  2.6599
   32PC      C2 1393   4.855  -0.148   5.621 -0.1856  0.4832 -0.3974
   32PC      HX 1394   4.763  -0.162   5.678 -0.2354  0.8438 -0.3869
   32PC      C3 1395   4.972  -0.106   5.704  0.2201  0.1952 -0.0271
   32PC      HA 1396   4.983  -0.176   5.788 -0.1852 -1.3059 -1.1836
   32PC      HB 1397   5.061  -0.113   5.641  0.1638  1.2188 -0.2373
   32PC     O31 1398   4.977   0.035   5.738  0.2251  0.7342 -0.2485
   32PC     P31 1399   4.908   0.107   5.867 -0.4389 -0.2062  0.1592
   32PC     O32 1400   4.756   0.092   5.832  0.2284  0.0081  0.1113
   32PC     C31 1401   4.676   0.203   5.780  0.4104  0.2338  0.2957
   32PC     H1A 1402   4.654   0.283   5.851 -1.1050 -0.5664  0.7768
   32PC     H1B 1403   4.731   0.260   5.705 -0.2647  0.6075  0.0864
   32PC     C32 1404   4.541   0.146   5.718 -0.1133 -0.8732  0.2894
   32PC     H2A 1405   4.478   0.226   5.680  0.4347 -1.0345 -0.9937
   32PC     H2B 1406   4.559   0.087   5.628 -0.1216  0.4169 -0.5767
   32PC     N31 1407   4.447   0.067   5.803  0.3247  0.2060  0.2584
   32PC     C33 1408   4.306   0.088   5.756  0.2334  0.0969  0.6664
   32PC     H3A 1409   4.289   0.057   5.653 -2.0956  0.8574  0.7521
   32PC     H3B 1410   4.229   0.034   5.811 -2.6300  0.4675 -2.5994
   32PC     H3C 1411   4.286   0.195   5.763  0.7066  0.1384  1.4769
   32PC     C34 1412   4.476  -0.079   5.789  0.4214 -0.0608 -0.2996
   32PC     H4A 1413   4.404  -0.129   5.854  2.0984  0.8172  2.3794
   32PC     H4B 1414   4.460  -0.113   5.687  2.2098  1.4375 -1.1386
   32PC     H4C 1415   4.578  -0.101   5.819  0.0182 -1.7647 -0.1153
   32PC     C35 1416   4.451   0.107   5.950 -0.5912 -0.1667  0.2787
   32PC     H5A 1417   4.380   0.040   5.998  1.1233 -1.6298  0.9056
   32PC     H5B 1418   4.433   0.215   5.953  0.8408  0.0830  0.5658
   32PC     H5C 1419   4.549   0.087   5.993 -0.7062  0.8657  1.0553
   32PC     O33 1420   4.928   0.024   5.984 -0.1313 -0.1679  0.6378
   32PC     O34 1421   4.946   0.252   5.874 -0.3662  0.1405 -0.0908
   32PC     O21 1422   4.903  -0.275   5.567 -0.1508 -0.3454  0.0095
   32PC     C21 1423   4.816  -0.368   5.533  0.3018 -0.1540  0.0918
   32PC     O22 1424   4.698  -0.357   5.557 -0.6184  0.1424  0.5082
   33OL     C12 1425   4.875  -0.488   5.461  0.1761  0.2693  0.6857
   33OL     H2R 1426   4.953  -0.535   5.522  1.3914 -0.0789 -1.0683
   33OL     H2S 1427   4.928  -0.448   5.374 -3.2392 -0.7596 -2.0879
   33OL     C13 1428   4.773  -0.595   5.422 -0.0171 -0.0651  0.1854
   33OL     H3R 1429   4.710  -0.556   5.342  2.4963 -0.1479 -1.9946
   33OL     H3S 1430   4.709  -0.623   5.506  0.1684  1.5993  0.9183
   33OL     C14 1431   4.844  -0.720   5.366 -0.2407 -0.0161  0.1075
   33OL     H4R 1432   4.906  -0.767   5.443 -0.8831 -0.0388  0.6229
   33OL     H4S 1433   4.912  -0.688   5.287  0.0752 -2.5785 -0.7731
   33OL     C15 1434   4.753  -0.821   5.305 -0.2658  0.4578  0.7342
   33OL     H5R 1435   4.686  -0.853   5.385 -0.0471  0.2671  0.8456
   33OL     H5S 1436   4.795  -0.919   5.278 -1.1126 -0.1961  1.7311
   33OL     C16 1437   4.675  -0.789   5.181 -0.7361  0.6464  0.8703
   33OL     H6R 1438   4.592  -0.718   5.188  0.5843  2.1197  2.0610
   33OL     H6S 1439   4.630  -0.882   5.147 -1.1063  1.2649 -0.3981
   33OL     C17 1440   4.766  -0.736   5.060 -0.1595  0.3175  0.2370
   33OL     H7R 1441   4.835  -0.818   5.039 -1.2325 -0.4489 -0.3550
   33OL     H7S 1442   4.824  -0.647   5.087 -2.7418  1.7863  1.2983
   33OL     C18 1443   4.698  -0.706   4.920  0.6403 -0.3839  0.8200
   33OL     H8R 1444   4.607  -0.648   4.936  0.4456 -0.3142 -0.4265
   33OL     H8S 1445   4.658  -0.793   4.868  1.4570 -0.5502  0.4554
   33OL     C19 1446   4.783  -0.627   4.826  0.0723 -0.0569  0.2586
   33OL     H9R 1447   4.863  -0.567   4.869 -0.5311  0.5917  0.4980
   33OL    C110 1448   4.765  -0.608   4.694  0.3072  0.1809 -0.2779
   33OL    H10R 1449   4.831  -0.548   4.632  0.2787 -1.0761 -1.5724
   33OL    C111 1450   4.648  -0.666   4.617  0.5643  0.8672  0.7159
   33OL    H11R 1451   4.574  -0.712   4.683 -0.1217  0.5883 -0.2106
   33OL    H11S 1452   4.685  -0.742   4.548 -3.6142 -0.8440  0.0493
   33OL    C112 1453   4.585  -0.557   4.534 -0.1953 -0.5330 -1.4201
   33OL    H12R 1454   4.564  -0.463   4.586  0.8992 -1.1477  0.2083
   33OL    H12S 1455   4.483  -0.590   4.514 -0.3906 -0.0250 -1.2817
   33OL    C113 1456   4.664  -0.526   4.406  0.3165 -0.3748 -0.0169
   33OL    H13R 1457   4.702  -0.618   4.362  0.0396 -1.3430  1.6680
   33OL    H13S 1458   4.754  -0.478   4.446  2.5589 -4.2724  0.1648
   33OL    C114 1459   4.590  -0.431   4.305  0.4717  0.9685 -0.5123
   33OL    H14R 1460   4.553  -0.343   4.357  0.8859  0.3642  0.8334
   33OL    H14S 1461   4.504  -0.483   4.263 -0.8881  1.2047  1.8603
   33OL    C115 1462   4.684  -0.390   4.193  0.2884  0.6552 -0.1754
   33OL    H15R 1463   4.707  -0.485   4.144  1.1283  0.1507  1.1626
   33OL    H15S 1464   4.773  -0.350   4.242 -0.5544  2.0000  0.3178
   33OL    C116 1465   4.618  -0.288   4.097 -0.1430  0.3268 -0.2022
   33OL    H16R 1466   4.531  -0.252   4.153 -0.4473 -0.8126  0.0796
   33OL    H16S 1467   4.569  -0.346   4.019  0.9584 -1.2634  0.2486
   33OL    C117 1468   4.721  -0.179   4.049 -0.3952 -0.0386 -0.3124
   33OL    H17R 1469   4.794  -0.228   3.985 -0.1515  2.2323 -1.9019
   33OL    H17S 1470   4.769  -0.132   4.135 -0.6145 -1.0526  0.3737
   33OL    C118 1471   4.658  -0.068   3.966 -0.7756  0.1727  0.0277
   33OL    H18R 1472   4.731   0.004   3.929 -1.2333  0.7064  0.1385
   33OL    H18S 1473   4.586  -0.009   4.024 -1.0237  1.9340 -1.9416
   33OL    H18T 1474   4.611  -0.113   3.879  1.3964 -2.2418 -0.0094
   34PA    C116 1475   6.725   3.153   4.022  0.2024 -0.9352  0.1125
   34PA    H16R 1476   6.758   3.050   4.033 -0.6311 -1.3937 -1.2707
   34PA    H16S 1477   6.717   3.194   4.123  0.5174 -0.4637 -0.0475
   34PA    H16T 1478   6.793   3.207   3.956 -0.1304 -1.5899 -0.7900
   34PA    C115 1479   6.586   3.152   3.954  0.3057  0.9152  0.0304
   34PA    H15R 1480   6.597   3.101   3.858  1.4497 -0.3845  0.8173
   34PA    H15S 1481   6.523   3.084   4.012  0.8835 -0.6055 -1.0614
   34PA    C114 1482   6.523   3.283   3.921  0.6394 -0.2038 -0.4270
   34PA    H14R 1483   6.601   3.334   3.864  1.2317  0.6336  1.0979
   34PA    H14S 1484   6.429   3.293   3.866  1.0139  2.4377 -0.7355
   34PA    C113 1485   6.504   3.390   4.037  0.3193 -0.6219  0.1224
   34PA    H13R 1486   6.599   3.389   4.091  1.0570 -1.6256 -1.1328
   34PA    H13S 1487   6.488   3.483   3.981  1.4301 -1.3507 -1.4816
   34PA    C112 1488   6.381   3.352   4.127  0.1061  0.3141  0.1314
   34PA    H12R 1489   6.289   3.393   4.084  0.4527 -0.4085 -1.3705
   34PA    H12S 1490   6.379   3.244   4.137  1.2108  0.1961 -0.6514
   34PA    C111 1491   6.394   3.400   4.265 -0.6392  0.2613 -0.8439
   34PA    H11R 1492   6.326   3.348   4.333 -0.6786  0.2981 -0.8546
   34PA    H11S 1493   6.491   3.363   4.299 -1.5393 -0.3954  1.1830
   34PA    C110 1494   6.382   3.559   4.278  0.1978  0.5288  0.3651
   34PA    H10R 1495   6.459   3.604   4.216 -0.6043  0.4908 -0.6796
   34PA    H10S 1496   6.279   3.589   4.262  0.2580  1.0167  0.8497
   34PA     C19 1497   6.399   3.599   4.425 -0.2887  0.6069  0.0599
   34PA     H9R 1498   6.319   3.555   4.485 -0.2788 -0.7664 -0.9054
   34PA     H9S 1499   6.493   3.562   4.466  1.2905  2.1029 -2.0208
   34PA     C18 1500   6.391   3.750   4.447 -0.0999 -0.7465  0.6760
   34PA     H8R 1501   6.483   3.790   4.405  0.7152 -3.4229 -0.2738
   34PA     H8S 1502   6.298   3.791   4.407 -0.5213 -3.6599 -1.7263
   34PA     C17 1503   6.397   3.786   4.599 -0.5847  0.4132  0.2202
   34PA     H7R 1504   6.384   3.893   4.615 -0.2832  0.7713 -1.6776
   34PA     H7S 1505   6.323   3.728   4.655  2.5677 -2.7409  1.4897
   34PA     C16 1506   6.537   3.757   4.647  0.1102 -0.4027 -0.4141
   34PA     H6R 1507   6.576   3.657   4.626  1.2769 -0.3878  1.4295
   34PA     H6S 1508   6.609   3.826   4.604 -2.0708  0.6068 -2.6469
   34PA     C15 1509   6.538   3.772   4.800 -0.2329  0.1477 -0.9625
   34PA     H5R 1510   6.479   3.861   4.824  0.4356  0.3579 -0.0505
   34PA     H5S 1511   6.488   3.693   4.857  0.6600 -0.4520 -0.9867
   34PA     C14 1512   6.687   3.787   4.845 -0.7482  0.2274  0.0297
   34PA     H4R 1513   6.749   3.727   4.780 -2.0917 -1.5956  0.3692
   34PA     H4S 1514   6.722   3.890   4.833 -3.0114  0.9395 -1.0733
   34PA     C13 1515   6.702   3.746   4.993  0.3291 -0.0333  0.1948
   34PA     H3R 1516   6.636   3.659   5.002 -0.4273  0.4268 -0.7364
   34PA     H3S 1517   6.800   3.703   5.016  0.7813  1.0104  0.2685
   34PA     C12 1518   6.659   3.872   5.078 -0.0911  0.1678 -0.0410
   34PA     H2R 1519   6.745   3.938   5.078 -0.4812  0.6800 -0.2287
   34PA     H2S 1520   6.579   3.927   5.027  0.9469 -0.3130 -2.2882
   35PC     C11 1521   6.606   3.838   5.214 -0.2440  0.6088  0.0161
   35PC     O12 1522   6.655   3.753   5.283 -0.6056 -0.2250 -0.3179
   35PC     O11 1523   6.485   3.895   5.239  0.1807  0.1905  0.4740
   35PC      C1 1524   6.435   3.890   5.375 -0.5140  0.0128  0.7980
   35PC      HR 1525   6.328   3.911   5.368 -0.5957 -0.4295  0.6737
   35PC      HS 1526   6.444   3.791   5.421 -0.1124 -0.4988 -0.3242
   35PC      C2 1527   6.508   3.990   5.468  0.5532  0.9036  0.5357
   35PC      HX 1528   6.613   3.959   5.470  0.4798  0.6346  0.2731
   35PC      C3 1529   6.451   3.976   5.609  0.4274  0.3366 -0.1430
   35PC      HA 1530   6.360   4.036   5.604  1.7415  2.5019  0.5977
   35PC      HB 1531   6.423   3.873   5.634 -0.1420  0.1076 -1.6250
   35PC     O31 1532   6.531   4.033   5.715  0.1568 -0.1260 -0.4904
   35PC     P31 1533   6.662   3.962   5.779  0.0187 -0.0000  0.4914
   35PC     O32 1534   6.611   3.845   5.872 -0.1776  0.1017 -0.6307
   35PC     C31 1535   6.560   3.720   5.822 -0.2169  0.7406 -0.8510
   35PC     H1A 1536   6.466   3.731   5.767 -1.3314  0.2983  0.8803
   35PC     H1B 1537   6.637   3.674   5.760  1.6478  1.5850  0.7270
   35PC     C32 1538   6.528   3.644   5.947  0.1648 -1.4000 -0.3703
   35PC     H2A 1539   6.612   3.659   6.015 -0.0824 -0.4262 -0.2747
   35PC     H2B 1540   6.456   3.715   5.989  1.5587 -0.9094  1.3283
   35PC     N31 1541   6.492   3.504   5.941  0.6146  0.2539  0.2006
   35PC     C33 1542   6.417   3.462   6.064  0.6581 -0.9290  0.2450
   35PC     H3A 1543   6.397   3.355   6.063  0.5444 -0.9187  1.0609
   35PC     H3B 1544   6.471   3.494   6.153  0.2748  1.0900 -0.1875
   35PC     H3C 1545   6.321   3.515   6.069 -0.3034 -2.3793 -1.4263
   35PC     C34 1546   6.413   3.465   5.818  0.2229  0.3280 -0.1041
   35PC     H4A 1547   6.468   3.484   5.726  2.0937  1.4306  1.1577
   35PC     H4B 1548   6.395   3.358   5.804  0.1972  0.5624 -2.0550
   35PC     H4C 1549   6.334   3.540   5.820 -1.3343 -1.2309 -0.3848
   35PC     C35 1550   6.609   3.415   5.933  0.6707 -0.6251  0.1096
   35PC     H5A 1551   6.573   3.313   5.920 -0.3025 -0.0707 -1.9444
   35PC     H5B 1552   6.671   3.427   6.022  1.7511 -0.1506 -0.6734
   35PC     H5C 1553   6.666   3.430   5.841  0.5849 -1.4756 -0.0910
   35PC     O33 1554   6.736   3.902   5.666  0.8381  0.6895 -0.2783
   35PC     O34 1555   6.736   4.065   5.862  0.2774  0.2640 -0.6679
   35PC     O21 1556   6.488   4.124   5.416  0.5147 -0.3807  0.0266
   35PC     C21 1557   6.585   4.183   5.348 -1.2519 -0.2735 -0.0689
   35PC     O22 1558   6.696   4.138   5.328 -0.3216  0.1311  1.1797
   36OL     C12 1559   6.537   4.316   5.292  0.0498  0.1702  0.0597
   36OL     H2R 1560   6.553   4.397   5.364  0.4792  2.0914 -2.0901
   36OL     H2S 1561   6.429   4.312   5.281  0.2962 -0.1572 -3.1210
   36OL     C13 1562   6.613   4.349   5.163  0.0477 -0.3681  0.1643
   36OL     H3R 1563   6.719   4.355   5.187  0.0347 -1.1022  0.4413
   36OL     H3S 1564   6.582   4.452   5.142  0.8057  0.4695  2.7654
   36OL     C14 1565   6.595   4.251   5.050  0.2430  0.1330  0.0741
   36OL     H4R 1566   6.632   4.152   5.079 -0.7751 -0.4270 -0.4959
   36OL     H4S 1567   6.658   4.282   4.967 -2.7573  0.0467 -2.4052
   36OL     C15 1568   6.451   4.248   4.995  0.3163 -0.5193 -0.0343
   36OL     H5R 1569   6.383   4.217   5.074 -1.1033  1.5841 -0.3311
   36OL     H5S 1570   6.446   4.178   4.912  0.3204  1.4030 -1.7446
   36OL     C16 1571   6.398   4.383   4.933  0.6203 -0.2513 -0.4182
   36OL     H6R 1572   6.459   4.401   4.845  3.3698  0.2178  1.4487
   36OL     H6S 1573   6.411   4.476   4.988 -1.3744  1.7091 -3.0512
   36OL     C17 1574   6.261   4.380   4.870  0.3949  0.3349  0.1600
   36OL     H7R 1575   6.191   4.386   4.954  1.8534  1.9160  1.3201
   36OL     H7S 1576   6.242   4.282   4.824 -1.7826  0.4213  0.7164
   36OL     C18 1577   6.228   4.485   4.763 -0.7343  0.6581 -0.3013
   36OL     H8R 1578   6.285   4.458   4.674 -1.3608  1.0421 -0.8249
   36OL     H8S 1579   6.256   4.588   4.786  0.5879  0.5052 -1.1313
   36OL     C19 1580   6.079   4.478   4.737  0.1316 -1.0863 -0.1126
   36OL     H9R 1581   6.013   4.492   4.822  0.3561  0.1817 -0.1210
   36OL    C110 1582   6.025   4.447   4.617 -0.6085 -0.2761 -0.4838
   36OL    H10R 1583   5.916   4.448   4.617 -0.6594  2.2604  0.6911
   36OL    C111 1584   6.104   4.424   4.491 -0.0147 -0.1503  0.0449
   36OL    H11R 1585   6.190   4.362   4.516 -0.6621  0.1839  3.6415
   36OL    H11S 1586   6.136   4.513   4.436 -0.2741 -1.1985 -1.8931
   36OL    C112 1587   6.009   4.338   4.397  0.1359 -0.6597  0.3720
   36OL    H12R 1588   5.976   4.248   4.449 -0.4440 -0.3342  0.5745
   36OL    H12S 1589   6.063   4.309   4.306  1.6314  0.6665  0.7787
   36OL    C113 1590   5.886   4.427   4.344  0.6690 -0.6682 -0.4079
   36OL    H13R 1591   5.921   4.504   4.275 -0.5265 -0.2893 -0.6143
   36OL    H13S 1592   5.839   4.474   4.430  0.3527  0.9820 -1.4409
   36OL    C114 1593   5.779   4.341   4.275  0.0955  0.0952  0.1810
   36OL    H14R 1594   5.697   4.406   4.246  0.1127  0.9788  2.0027
   36OL    H14S 1595   5.729   4.272   4.343  1.9355  0.2170  1.7270
   36OL    C115 1596   5.830   4.263   4.153 -0.4289  0.7672 -0.0818
   36OL    H15R 1597   5.742   4.209   4.116 -1.4261  2.9578 -1.1024
   36OL    H15S 1598   5.899   4.187   4.190 -2.4723 -1.3061 -0.3041
   36OL    C116 1599   5.886   4.344   4.038 -0.1192 -0.4610 -0.0288
   36OL    H16R 1600   5.972   4.403   4.072 -0.3476 -0.1824  0.0681
   36OL    H16S 1601   5.804   4.407   4.003 -1.3330 -1.4757  0.9102
   36OL    C117 1602   5.943   4.258   3.920  0.0295 -0.4834 -0.0126
   36OL    H17R 1603   5.864   4.195   3.878 -0.4773  0.2973 -0.2527
   36OL    H17S 1604   6.031   4.200   3.948  0.9501  0.6285 -0.5125
   36OL    C118 1605   5.994   4.351   3.798  0.4194 -0.9029  0.6353
   36OL    H18R 1606   6.022   4.446   3.843 -2.6390  0.4776 -0.1243
   36OL    H18S 1607   5.909   4.365   3.732  0.9709  0.4451  0.1724
   36OL    H18T 1608   6.080   4.312   3.742 -0.5075 -0.5203 -1.1020
   37PA    C116 1609   1.578   1.687   4.161 -0.2873  0.4901 -0.0039
   37PA    H16R 1610   1.584   1.748   4.071  1.0626  0.5059  0.0781
   37PA    H16S 1611   1.507   1.604   4.152 -0.1715  0.4422 -0.5031
   37PA    H16T 1612   1.679   1.653   4.185 -0.8354 -0.2956  1.3521
   37PA    C115 1613   1.540   1.786   4.277  0.1465 -0.4040  0.4561
   37PA    H15R 1614   1.621   1.854   4.303 -0.1104 -0.5570  1.6828
   37PA    H15S 1615   1.454   1.846   4.247  0.6267  0.7100  1.2161
   37PA    C114 1616   1.510   1.729   4.419  0.0660 -0.1443  0.1371
   37PA    H14R 1617   1.514   1.620   4.414 -1.1284 -0.4363  3.2695
   37PA    H14S 1618   1.579   1.765   4.495  0.9841 -0.9178 -0.3079
   37PA    C113 1619   1.363   1.753   4.475 -0.6175 -0.4190  0.4444
   37PA    H13R 1620   1.348   1.859   4.495 -2.1001 -0.3479 -0.9099
   37PA    H13S 1621   1.302   1.712   4.395  1.0453 -0.2287 -0.9732
   37PA    C112 1622   1.330   1.668   4.592  0.7896  0.4011 -0.1390
   37PA    H12R 1623   1.307   1.570   4.551  1.9115  0.4940 -1.0275
   37PA    H12S 1624   1.417   1.655   4.657 -0.1279 -1.3303  0.8389
   37PA    C111 1625   1.212   1.727   4.677 -0.3955 -0.8435  0.6154
   37PA    H11R 1626   1.248   1.826   4.707  1.0233 -1.0171 -0.4132
   37PA    H11S 1627   1.131   1.742   4.604  0.5442 -0.6233 -0.4039
   37PA    C110 1628   1.173   1.641   4.795  0.0197  0.7606  0.0056
   37PA    H10R 1629   1.100   1.571   4.754  0.9874 -0.6098  0.5497
   37PA    H10S 1630   1.252   1.572   4.824 -0.6751  0.1738  0.5581
   37PA     C19 1631   1.111   1.726   4.902 -0.9632  0.4084  0.2601
   37PA     H9R 1632   1.171   1.813   4.931 -0.3268 -0.2046  0.8149
   37PA     H9S 1633   1.018   1.771   4.866 -1.0672 -0.6155 -0.7878
   37PA     C18 1634   1.084   1.633   5.022 -0.3738 -0.4481 -0.1198
   37PA     H8R 1635   1.010   1.558   4.993 -0.2420 -0.1710 -1.2043
   37PA     H8S 1636   1.183   1.591   5.041 -0.7663 -1.5629 -0.4583
   37PA     C17 1637   1.034   1.700   5.148  0.3189  0.1309 -0.1947
   37PA     H7R 1638   1.118   1.755   5.191  0.6683 -0.8669  0.4389
   37PA     H7S 1639   0.956   1.772   5.121  0.0560  0.8011  2.1141
   37PA     C16 1640   0.977   1.602   5.252  0.3660 -0.3720  0.2620
   37PA     H6R 1641   0.902   1.534   5.212 -1.2395  0.5046  1.6865
   37PA     H6S 1642   1.051   1.542   5.305  0.4643 -0.1433  0.3880
   37PA     C15 1643   0.908   1.673   5.363  0.0943 -0.2949 -1.0040
   37PA     H5R 1644   0.985   1.736   5.407 -0.2428 -0.0266 -0.7935
   37PA     H5S 1645   0.828   1.743   5.336  0.0387 -0.0715 -0.2654
   37PA     C14 1646   0.861   1.588   5.481 -0.1923  0.5134 -0.3026
   37PA     H4R 1647   0.802   1.649   5.550 -0.3376 -1.2431  1.2204
   37PA     H4S 1648   0.793   1.514   5.437  0.6643 -0.2917 -0.2984
   37PA     C13 1649   0.977   1.510   5.556  0.4612  0.4981  0.3615
   37PA     H3R 1650   0.943   1.479   5.655 -0.5557 -0.6337 -0.3222
   37PA     H3S 1651   1.007   1.423   5.497  1.2969  0.7274  0.4259
   37PA     C12 1652   1.109   1.588   5.575 -0.4191  0.2735 -0.0849
   37PA     H2R 1653   1.184   1.528   5.628 -0.6526 -0.6932 -0.8300
   37PA     H2S 1654   1.151   1.613   5.478 -0.5045  0.9947  0.0573
   38PC     C11 1655   1.093   1.712   5.656 -0.0113 -0.6882 -0.1713
   38PC     O12 1656   1.104   1.824   5.605  0.3386 -0.0622 -0.2376
   38PC     O11 1657   1.062   1.691   5.782 -0.1172  0.4458 -0.1774
   38PC      C1 1658   1.034   1.807   5.867  0.4175 -0.3772  0.7187
   38PC      HR 1659   1.061   1.777   5.968 -1.1339 -1.0587  0.9522
   38PC      HS 1660   1.094   1.892   5.833 -0.1821 -0.3292 -0.2738
   38PC      C2 1661   0.881   1.850   5.873  0.3514 -0.7563 -0.1768
   38PC      HX 1662   0.877   1.942   5.932 -3.0782 -0.8836 -0.0006
   38PC      C3 1663   0.790   1.743   5.943 -0.1469  0.2674  0.6934
   38PC      HA 1664   0.685   1.768   5.925 -0.1307  0.3194  0.6707
   38PC      HB 1665   0.804   1.645   5.897 -2.9739 -0.1696  0.5903
   38PC     O31 1666   0.812   1.731   6.087  0.1950  0.3872 -0.2865
   38PC     P31 1667   0.760   1.844   6.180  0.2366 -0.5837 -0.0582
   38PC     O32 1668   0.883   1.938   6.188  0.4413 -0.3852 -0.1797
   38PC     C31 1669   0.998   1.901   6.261 -0.9249  0.0207 -0.2115
   38PC     H1A 1670   1.012   1.793   6.268 -1.1075  0.0934  2.3046
   38PC     H1B 1671   1.085   1.936   6.204  0.0924  0.0495  1.3068
   38PC     C32 1672   0.994   1.960   6.398 -1.3645  0.1821 -0.6794
   38PC     H2A 1673   0.966   2.066   6.403  2.9288  1.5081 -0.1703
   38PC     H2B 1674   0.923   1.915   6.467  0.3987 -0.3095  0.9034
   38PC     N31 1675   1.130   1.960   6.472 -0.4328  0.2258 -0.0887
   38PC     C33 1676   1.174   1.820   6.494  0.5352  0.3120  0.2248
   38PC     H3A 1677   1.259   1.823   6.561  0.6990  1.9340 -0.0113
   38PC     H3B 1678   1.093   1.755   6.527 -0.5102  0.4775 -1.7947
   38PC     H3C 1679   1.208   1.775   6.400 -0.9158  0.4623 -0.4098
   38PC     C34 1680   1.235   2.026   6.390 -0.1361 -0.4127 -0.1639
   38PC     H4A 1681   1.321   2.030   6.456  0.2990  1.1675 -0.7850
   38PC     H4B 1682   1.260   1.960   6.307 -0.2124 -0.0308 -0.4920
   38PC     H4C 1683   1.199   2.128   6.380 -0.4377 -0.3248  1.5834
   38PC     C35 1684   1.111   2.037   6.595  0.5159 -0.2261  0.4633
   38PC     H5A 1685   1.212   2.024   6.634  0.6127 -0.9404 -0.0045
   38PC     H5B 1686   1.038   1.995   6.664  2.2264  0.2743  2.6709
   38PC     H5C 1687   1.084   2.140   6.569  0.8783 -0.8088 -2.6329
   38PC     O33 1688   0.648   1.910   6.103  0.3956 -0.0530 -0.1600
   38PC     O34 1689   0.734   1.791   6.315 -0.3545 -0.3185  0.6838
   38PC     O21 1690   0.835   1.881   5.741  0.2955  0.2113  0.0691
   38PC     C21 1691   0.849   2.001   5.688  0.1669  0.7271 -0.0027
   38PC     O22 1692   0.929   2.088   5.718 -0.3638  0.1221  1.1168
   39OL     C12 1693   0.755   2.009   5.571  0.7274 -0.1559  0.0096
   39OL     H2R 1694   0.680   2.085   5.596  0.1787 -0.4882 -0.5964
   39OL     H2S 1695   0.702   1.914   5.580  2.3827 -1.2057 -0.8444
   39OL     C13 1696   0.820   2.026   5.436 -0.8622 -0.9531 -0.2013
   39OL     H3R 1697   0.892   1.944   5.431 -0.0990 -0.3341  0.3963
   39OL     H3S 1698   0.884   2.114   5.426 -1.6212 -0.0742  2.1103
   39OL     C14 1699   0.714   2.027   5.326 -0.3468 -0.0539 -0.3599
   39OL     H4R 1700   0.635   2.099   5.348  0.8373  1.1399  0.1154
   39OL     H4S 1701   0.669   1.927   5.326  1.4899 -0.9133 -0.6251
   39OL     C15 1702   0.779   2.064   5.192  0.1097 -0.1952  0.0309
   39OL     H5R 1703   0.857   1.993   5.161 -0.2281 -0.7679  0.4695
   39OL     H5S 1704   0.807   2.169   5.190 -1.2324  0.2269 -3.0680
   39OL     C16 1705   0.679   2.065   5.077  0.1696 -0.1057 -0.3897
   39OL     H6R 1706   0.620   2.156   5.090 -1.5015 -1.3490  1.3203
   39OL     H6S 1707   0.615   1.976   5.075 -0.0369  0.0492 -1.6438
   39OL     C17 1708   0.752   2.076   4.943 -0.2324 -0.2135  0.3108
   39OL     H7R 1709   0.831   2.002   4.937 -0.3583 -0.3117 -0.1446
   39OL     H7S 1710   0.816   2.164   4.932 -0.1396 -0.4309 -1.1061
   39OL     C18 1711   0.663   2.084   4.813 -0.5730 -0.3052 -0.0392
   39OL     H8R 1712   0.723   2.111   4.726 -0.1513  1.6753  0.8112
   39OL     H8S 1713   0.584   2.159   4.826  0.0964  0.5989 -0.9494
   39OL     C19 1714   0.594   1.950   4.783 -0.4627 -0.4118 -0.4624
   39OL     H9R 1715   0.541   1.905   4.866  1.6815  0.0787  1.2373
   39OL    C110 1716   0.610   1.870   4.681 -0.1091  0.8434 -0.7502
   39OL    H10R 1717   0.562   1.773   4.687  1.5529  0.0662  0.7119
   39OL    C111 1718   0.691   1.891   4.563 -0.5474 -0.0186  0.8874
   39OL    H11R 1719   0.724   1.994   4.548 -0.8963 -0.1547 -1.0966
   39OL    H11S 1720   0.633   1.886   4.470  0.6098 -0.2236  0.1514
   39OL    C112 1721   0.817   1.802   4.554 -0.1607 -0.1617  0.2222
   39OL    H12R 1722   0.860   1.808   4.654  0.6599  0.3649 -0.1519
   39OL    H12S 1723   0.896   1.838   4.487 -0.8221  1.9038  0.4772
   39OL    C113 1724   0.781   1.652   4.528  0.3386  0.2347 -0.9341
   39OL    H13R 1725   0.721   1.641   4.437 -0.3853 -2.1063 -0.2363
   39OL    H13S 1726   0.716   1.621   4.609 -0.3585  0.9971 -1.1870
   39OL    C114 1727   0.905   1.555   4.514  1.0348  0.3182  0.3100
   39OL    H14R 1728   0.883   1.448   4.512 -0.5092  0.5861 -2.8097
   39OL    H14S 1729   0.969   1.568   4.602  1.0922 -1.8325  0.6524
   39OL    C115 1730   0.975   1.590   4.383  0.4983 -0.0932  0.0545
   39OL    H15R 1731   1.011   1.694   4.383 -0.6170  0.3140 -0.5564
   39OL    H15S 1732   0.902   1.590   4.302  0.2596 -1.0150  0.2694
   39OL    C116 1733   1.075   1.486   4.346  0.8876 -0.4265  0.1036
   39OL    H16R 1734   1.034   1.386   4.331  0.0725 -0.2973  1.3253
   39OL    H16S 1735   1.160   1.482   4.414  0.6226  2.7178  0.7760
   39OL    C117 1736   1.137   1.507   4.208 -0.3436  0.0887 -0.0636
   39OL    H17R 1737   1.176   1.609   4.199 -0.1555  0.3851  3.0678
   39OL    H17S 1738   1.067   1.485   4.128 -1.7878  0.9207  0.9257
   39OL    C118 1739   1.250   1.410   4.182  0.8517 -0.6986 -0.2811
   39OL    H18R 1740   1.211   1.308   4.173  1.3476 -1.1629  2.0083
   39OL    H18S 1741   1.322   1.408   4.265 -0.2565 -0.7969  0.7130
   39OL    H18T 1742   1.304   1.438   4.092 -0.5107 -0.9488 -1.2021
   40PA    C116 1743   5.269  -1.126   4.200 -0.6239  0.3974  0.6046
   40PA    H16R 1744   5.229  -1.198   4.129 -0.7759 -0.1451  1.2320
   40PA    H16S 1745   5.377  -1.141   4.198 -0.9556 -2.3545 -0.7118
   40PA    H16T 1746   5.234  -1.031   4.160 -1.1237  0.2761  0.7448
   40PA    C115 1747   5.215  -1.152   4.339 -0.0289  0.6414  0.7480
   40PA    H15R 1748   5.241  -1.254   4.367  1.3329  0.6819 -0.2372
   40PA    H15S 1749   5.267  -1.090   4.412  2.2724 -1.7671  1.3100
   40PA    C114 1750   5.065  -1.137   4.354  0.0539  0.3529  0.8577
   40PA    H14R 1751   5.044  -1.042   4.306  0.3985  0.2679  0.5312
   40PA    H14S 1752   5.022  -1.216   4.292 -0.3274  1.7195 -0.6842
   40PA    C113 1753   5.036  -1.124   4.510  0.3098  1.1227  0.3423
   40PA    H13R 1754   5.070  -1.218   4.556  0.9529  1.4371  0.5222
   40PA    H13S 1755   5.098  -1.046   4.554 -0.0882  0.3789  2.3008
   40PA    C112 1756   4.897  -1.085   4.548  0.4048  0.0929  0.5914
   40PA    H12R 1757   4.856  -0.999   4.495 -2.0313 -1.4875 -0.2890
   40PA    H12S 1758   4.826  -1.158   4.508  1.3630 -0.1435 -0.7499
   40PA    C111 1759   4.873  -1.064   4.700 -0.3191 -0.1172  0.2308
   40PA    H11R 1760   4.904  -1.150   4.761 -0.0952 -0.9639 -1.0300
   40PA    H11S 1761   4.950  -0.991   4.725 -1.0485  0.0635  2.1316
   40PA    C110 1762   4.739  -1.009   4.745  0.3928 -1.0671  0.7276
   40PA    H10R 1763   4.747  -0.985   4.851 -0.0454  2.9148  0.0064
   40PA    H10S 1764   4.711  -0.916   4.696 -1.2908 -2.3139 -0.8508
   40PA     C19 1765   4.619  -1.109   4.711  0.1840  0.3826 -0.4709
   40PA     H9R 1766   4.609  -1.127   4.603 -1.6658 -2.0306  0.0047
   40PA     H9S 1767   4.643  -1.205   4.757  1.4002  0.8250 -0.1370
   40PA     C18 1768   4.478  -1.067   4.753  0.1309 -1.1207  0.1312
   40PA     H8R 1769   4.469  -0.966   4.711  1.6188 -0.6001  0.9741
   40PA     H8S 1770   4.404  -1.129   4.702 -0.0313 -0.4256 -0.4866
   40PA     C17 1771   4.444  -1.040   4.906 -0.3116 -0.1508  0.7199
   40PA     H7R 1772   4.425  -1.135   4.956  2.1589 -0.5052  1.1272
   40PA     H7S 1773   4.532  -0.992   4.950  0.3836 -1.0766  0.3763
   40PA     C16 1774   4.313  -0.953   4.906 -0.4973 -0.6317  0.6974
   40PA     H6R 1775   4.320  -0.856   4.856 -0.6577 -0.6236  0.6916
   40PA     H6S 1776   4.244  -1.010   4.843 -1.7719  0.9730  0.5561
   40PA     C15 1777   4.266  -0.930   5.054  0.3018 -0.1242 -0.0840
   40PA     H5R 1778   4.336  -0.863   5.104 -1.1144  0.4633  1.1803
   40PA     H5S 1779   4.183  -0.860   5.053 -0.0124 -0.4895 -0.8896
   40PA     C14 1780   4.227  -1.049   5.141  0.2455 -0.2112 -0.0494
   40PA     H4R 1781   4.138  -1.094   5.096 -0.2208  1.3971 -0.8147
   40PA     H4S 1782   4.301  -1.129   5.153 -0.4196 -0.7959  0.2079
   40PA     C13 1783   4.203  -1.009   5.285 -0.4821 -0.0914 -0.3951
   40PA     H3R 1784   4.295  -0.971   5.331 -0.7654 -0.8754  0.8874
   40PA     H3S 1785   4.126  -0.932   5.273 -0.2094  0.4490  1.0914
   40PA     C12 1786   4.149  -1.122   5.374 -0.5741 -0.9259  0.0830
   40PA     H2R 1787   4.067  -1.165   5.316 -0.5642 -1.5389  0.5261
   40PA     H2S 1788   4.219  -1.205   5.368 -0.1259 -0.5143 -0.4736
   41PC     C11 1789   4.110  -1.079   5.517  0.1915  0.4943  0.2714
   41PC     O12 1790   3.993  -1.069   5.554 -0.0187  0.0527  0.0299
   41PC     O11 1791   4.218  -1.066   5.592  0.5434 -0.6419 -0.9709
   41PC      C1 1792   4.201  -1.033   5.731 -0.1393 -0.0266  0.1518
   41PC      HR 1793   4.124  -0.957   5.746 -0.9674 -0.6884 -0.6271
   41PC      HS 1794   4.180  -1.121   5.793 -2.8153  1.4553  1.5303
   41PC      C2 1795   4.336  -0.969   5.777 -0.8507 -0.7482  0.1749
   41PC      HX 1796   4.419  -1.031   5.741 -0.4246  0.0637 -0.2725
   41PC      C3 1797   4.332  -0.959   5.929  0.0633 -0.2458  0.6517
   41PC      HA 1798   4.428  -0.919   5.962  0.5081 -0.9038  0.1912
   41PC      HB 1799   4.245  -0.896   5.949 -0.5109 -1.6969  3.0351
   41PC     O31 1800   4.316  -1.090   5.988  0.3816 -0.1825  0.0081
   41PC     P31 1801   4.434  -1.149   6.080  0.6248 -0.4912 -0.5158
   41PC     O32 1802   4.549  -1.185   5.987 -0.5030  0.4109 -0.3195
   41PC     C31 1803   4.541  -1.309   5.912 -0.1974 -1.1260  0.5083
   41PC     H1A 1804   4.523  -1.392   5.980 -0.5732 -1.2384  0.2739
   41PC     H1B 1805   4.454  -1.288   5.850 -0.7987  3.2758  2.4289
   41PC     C32 1806   4.662  -1.325   5.825  0.3189 -0.2974 -0.3379
   41PC     H2A 1807   4.645  -1.424   5.783 -0.3534 -0.4656  0.3161
   41PC     H2B 1808   4.660  -1.251   5.744  1.9630 -0.3962 -0.5048
   41PC     N31 1809   4.803  -1.307   5.878  0.2278 -0.6370  0.2683
   41PC     C33 1810   4.845  -1.156   5.880  0.1680 -0.1770 -0.3085
   41PC     H3A 1811   4.954  -1.152   5.882  0.2474  0.0691 -2.7641
   41PC     H3B 1812   4.803  -1.102   5.795  0.9110  2.3458  0.8083
   41PC     H3C 1813   4.808  -1.114   5.974  1.0317 -1.4158  0.6007
   41PC     C34 1814   4.815  -1.373   6.011  0.4620 -0.1734  0.1623
   41PC     H4A 1815   4.812  -1.481   5.999 -1.4937 -0.3539  1.8853
   41PC     H4B 1816   4.908  -1.339   6.058  1.5096 -4.6777  1.8449
   41PC     H4C 1817   4.736  -1.345   6.080 -1.1020  0.0164 -1.6136
   41PC     C35 1818   4.886  -1.379   5.774  0.3820 -0.5651 -0.3523
   41PC     H5A 1819   4.987  -1.383   5.813  0.0280  0.2648  0.6915
   41PC     H5B 1820   4.886  -1.317   5.684 -0.4700  0.5144  0.3501
   41PC     H5C 1821   4.853  -1.481   5.753  0.5130 -0.6478 -0.1610
   41PC     O33 1822   4.472  -1.042   6.176  0.0580  0.0955 -0.3157
   41PC     O34 1823   4.371  -1.262   6.142  0.1105  0.2422  0.0031
   41PC     O21 1824   4.348  -0.826   5.724 -0.5344 -0.0855 -0.4326
   41PC     C21 1825   4.399  -0.803   5.602  0.1812  0.0331 -0.3031
   41PC     O22 1826   4.443  -0.890   5.529  0.7323  0.3016 -0.0619
   42OL     C12 1827   4.412  -0.657   5.579 -0.0228  0.7960 -0.1680
   42OL     H2R 1828   4.510  -0.627   5.617 -0.2760  0.3718  0.8745
   42OL     H2S 1829   4.340  -0.601   5.640 -0.2499 -0.4742  0.7892
   42OL     C13 1830   4.385  -0.602   5.439 -0.7866 -0.7136 -0.7717
   42OL     H3R 1831   4.450  -0.653   5.367 -0.4527 -0.1888 -0.8490
   42OL     H3S 1832   4.412  -0.496   5.444 -0.8142 -0.7540  0.4581
   42OL     C14 1833   4.238  -0.598   5.398 -0.3124 -0.2026 -0.3421
   42OL     H4R 1834   4.177  -0.550   5.474 -0.6874 -1.7601  0.3754
   42OL     H4S 1835   4.203  -0.700   5.380 -1.4373  0.0746  0.2077
   42OL     C15 1836   4.223  -0.515   5.272  0.5650  1.0615  0.1966
   42OL     H5R 1837   4.275  -0.421   5.289  2.5670  0.1606 -0.6265
   42OL     H5S 1838   4.118  -0.497   5.247  0.8405  1.1209 -0.9948
   42OL     C16 1839   4.282  -0.580   5.147 -0.0633 -0.3862  0.3735
   42OL     H6R 1840   4.217  -0.664   5.124  0.1676 -0.7557  1.0385
   42OL     H6S 1841   4.388  -0.607   5.155 -0.1646 -1.3104 -1.0210
   42OL     C17 1842   4.270  -0.487   5.021  0.5184 -0.2814  0.4761
   42OL     H7R 1843   4.309  -0.387   5.041  0.6821 -0.1917 -0.2538
   42OL     H7S 1844   4.165  -0.473   4.997  0.1638  0.0261  2.0550
   42OL     C18 1845   4.343  -0.539   4.898  0.4034 -0.4377 -0.5491
   42OL     H8R 1846   4.322  -0.645   4.881  2.9334 -1.2244  0.7699
   42OL     H8S 1847   4.449  -0.532   4.921  0.8634 -0.9608 -2.3713
   42OL     C19 1848   4.311  -0.448   4.781 -0.5371  0.4476 -0.2379
   42OL     H9R 1849   4.386  -0.372   4.758 -0.8517  1.8252  2.8267
   42OL    C110 1850   4.198  -0.452   4.715  0.3549 -0.6526  0.0903
   42OL    H10R 1851   4.190  -0.388   4.627 -0.1402 -1.2106 -0.2733
   42OL    C111 1852   4.069  -0.539   4.728 -0.1835 -0.2542 -0.0285
   42OL    H11R 1853   3.983  -0.476   4.751 -0.7131 -0.8442 -0.3777
   42OL    H11S 1854   4.073  -0.594   4.822  0.4241  0.0340  0.1248
   42OL    C112 1855   4.036  -0.624   4.600  0.1468 -0.8590 -0.0136
   42OL    H12R 1856   4.017  -0.560   4.514  1.9533 -1.1629 -0.6742
   42OL    H12S 1857   3.933  -0.661   4.611 -0.5185  0.5800 -1.1180
   42OL    C113 1858   4.133  -0.732   4.553  0.2601 -0.0187  0.4295
   42OL    H13R 1859   4.137  -0.823   4.613 -2.8123 -0.7860 -0.3616
   42OL    H13S 1860   4.231  -0.683   4.548  0.0353  0.3999 -0.0044
   42OL    C114 1861   4.097  -0.780   4.415  0.1164  0.3345  0.4749
   42OL    H14R 1862   4.084  -0.693   4.349 -0.7217 -2.2239 -2.9979
   42OL    H14S 1863   4.000  -0.829   4.419  0.8470 -1.6735 -2.8152
   42OL    C115 1864   4.194  -0.873   4.344 -0.2301  0.0814  0.3485
   42OL    H15R 1865   4.154  -0.892   4.245 -0.4820 -0.0652  0.4773
   42OL    H15S 1866   4.205  -0.959   4.411 -2.8033  0.1927  1.0156
   42OL    C116 1867   4.330  -0.806   4.330 -0.5274 -0.0159 -0.8276
   42OL    H16R 1868   4.371  -0.766   4.424  0.9816 -0.8412 -1.1029
   42OL    H16S 1869   4.308  -0.717   4.271 -1.7615  0.4340  0.2466
   42OL    C117 1870   4.428  -0.897   4.262  0.0361  0.6067 -0.8653
   42OL    H17R 1871   4.402  -0.911   4.157 -1.1963  1.3654 -0.6831
   42OL    H17S 1872   4.426  -0.998   4.303 -2.7005  0.4505 -1.1971
   42OL    C118 1873   4.563  -0.841   4.248  0.6597  0.0489  0.0682
   42OL    H18R 1874   4.608  -0.809   4.343 -2.0303  1.3557  1.0248
   42OL    H18S 1875   4.558  -0.755   4.181 -1.5159 -0.5538 -0.6227
   42OL    H18T 1876   4.630  -0.914   4.202 -1.4864 -1.3434 -0.9661
   43PA    C116 1877   2.608   2.062   4.167 -0.2709 -0.1670  0.0485
   43PA    H16R 1878   2.544   2.150   4.156  0.8266  0.5590 -0.7030
   43PA    H16S 1879   2.583   1.989   4.090  1.1984 -1.4443  0.7403
   43PA    H16T 1880   2.709   2.101   4.157  0.1414  0.0575  3.6403
   43PA    C115 1881   2.605   1.995   4.307  0.2001 -0.4450  1.2158
   43PA    H15R 1882   2.631   2.074   4.377 -0.5173  0.2250  0.7426
   43PA    H15S 1883   2.503   1.972   4.338  0.1104  0.6253  1.7598
   43PA    C114 1884   2.687   1.867   4.314 -0.6715 -0.8816 -0.0134
   43PA    H14R 1885   2.631   1.787   4.265  1.1966 -1.0759 -1.9440
   43PA    H14S 1886   2.776   1.879   4.253 -2.2337 -0.9131 -2.4455
   43PA    C113 1887   2.727   1.817   4.457  0.0895  0.4824  0.6469
   43PA    H13R 1888   2.799   1.737   4.435 -0.9157 -0.0902 -0.6741
   43PA    H13S 1889   2.774   1.895   4.518 -0.3393  2.0424 -0.9441
   43PA    C112 1890   2.609   1.742   4.528  0.0280 -0.4343  0.6007
   43PA    H12R 1891   2.515   1.798   4.532  1.0351  1.2752  1.9438
   43PA    H12S 1892   2.594   1.654   4.466 -0.2614  1.1041 -1.6581
   43PA    C111 1893   2.652   1.698   4.666 -0.2106 -0.1958 -0.3277
   43PA    H11R 1894   2.732   1.626   4.651 -0.5350 -0.3800 -1.2221
   43PA    H11S 1895   2.683   1.785   4.724 -0.3435  0.0861 -0.6759
   43PA    C110 1896   2.538   1.625   4.737  0.6248  0.1105  0.5217
   43PA    H10R 1897   2.593   1.582   4.821  0.9097 -0.1415  0.2106
   43PA    H10S 1898   2.458   1.692   4.770  1.5193  1.4812 -0.0233
   43PA     C19 1899   2.462   1.514   4.655 -0.3945  0.3692  0.1634
   43PA     H9R 1900   2.396   1.562   4.582 -0.2616 -0.6920 -0.6878
   43PA     H9S 1901   2.538   1.452   4.607 -1.5404  0.1045 -1.4112
   43PA     C18 1902   2.378   1.422   4.738  0.2088  0.0192 -0.0357
   43PA     H8R 1903   2.361   1.335   4.674 -1.1922  0.0973  0.1986
   43PA     H8S 1904   2.421   1.379   4.829  0.4209 -2.6262 -1.3172
   43PA     C17 1905   2.242   1.478   4.778  0.2349 -0.0999  0.2634
   43PA     H7R 1906   2.191   1.539   4.702  0.4588 -0.7496 -0.4123
   43PA     H7S 1907   2.185   1.385   4.772  0.1774  0.0273 -2.6621
   43PA     C16 1908   2.229   1.551   4.917  0.3328  0.5174  0.7639
   43PA     H6R 1909   2.266   1.652   4.897 -0.0034  0.6799  0.9691
   43PA     H6S 1910   2.123   1.551   4.941  0.1371  1.7804  0.0262
   43PA     C15 1911   2.301   1.488   5.036 -0.5689 -0.1688 -0.3930
   43PA     H5R 1912   2.267   1.385   5.047 -0.0886 -0.2802  0.0357
   43PA     H5S 1913   2.406   1.472   5.012 -0.0568 -1.0038  2.0929
   43PA     C14 1914   2.285   1.574   5.162  0.9260 -0.1642  0.6541
   43PA     H4R 1915   2.328   1.673   5.145  1.5872 -0.2577  1.6853
   43PA     H4S 1916   2.182   1.587   5.196 -0.0981 -2.2401 -1.3748
   43PA     C13 1917   2.369   1.517   5.278 -0.2941  0.2845 -0.6290
   43PA     H3R 1918   2.472   1.518   5.241 -0.4022  1.4860 -0.9478
   43PA     H3S 1919   2.368   1.585   5.363 -0.0752 -1.2785  0.6716
   43PA     C12 1920   2.325   1.380   5.324  0.0727 -0.3047  0.1855
   43PA     H2R 1921   2.219   1.389   5.350  0.6134  0.7436  2.2558
   43PA     H2S 1922   2.338   1.303   5.247 -0.4035  0.3659 -0.5913
   44PC     C11 1923   2.408   1.341   5.443  0.4352 -0.3553  0.2119
   44PC     O12 1924   2.399   1.403   5.551 -0.6550 -0.3473  0.1315
   44PC     O11 1925   2.496   1.242   5.418  0.0788 -0.1606  0.5184
   44PC      C1 1926   2.568   1.196   5.530  1.0481  0.6147 -0.1895
   44PC      HR 1927   2.636   1.123   5.486  0.3723  0.3885 -0.8787
   44PC      HS 1928   2.631   1.271   5.577  1.5015 -0.9313  1.8221
   44PC      C2 1929   2.481   1.123   5.634 -0.0226  0.2145  0.6498
   44PC      HX 1930   2.404   1.190   5.672 -1.0256 -0.5499  0.0169
   44PC      C3 1931   2.562   1.080   5.749  0.1461  1.1355  0.1075
   44PC      HA 1932   2.504   1.020   5.820  0.4036  0.1474 -0.4947
   44PC      HB 1933   2.646   1.024   5.709  1.0644  0.1914  3.1092
   44PC     O31 1934   2.626   1.197   5.810 -0.5732 -0.2632 -0.2034
   44PC     P31 1935   2.554   1.269   5.929 -0.6567  0.0528  0.1082
   44PC     O32 1936   2.576   1.171   6.052 -0.1173 -0.5207  0.0326
   44PC     C31 1937   2.706   1.131   6.085 -0.0578 -0.0146  0.4888
   44PC     H1A 1938   2.768   1.128   5.995  2.2313  1.4939  1.8870
   44PC     H1B 1939   2.741   1.207   6.156 -2.6203  0.6126  1.1773
   44PC     C32 1940   2.695   0.988   6.145  0.2566 -0.0154  0.2496
   44PC     H2A 1941   2.635   0.925   6.079 -0.0106  1.2811 -0.7963
   44PC     H2B 1942   2.798   0.951   6.148 -0.5048 -2.2867  0.5065
   44PC     N31 1943   2.644   0.970   6.283 -0.5081  0.7317 -0.0460
   44PC     C33 1944   2.528   1.058   6.300 -0.3126 -0.2008  0.3410
   44PC     H3A 1945   2.498   1.061   6.405  0.0487 -0.1255  0.4454
   44PC     H3B 1946   2.552   1.160   6.269  0.4899 -0.8543 -1.2849
   44PC     H3C 1947   2.442   1.017   6.246  0.1416 -2.7098  1.3900
   44PC     C34 1948   2.581   0.837   6.291 -0.0349  0.2591  0.6255
   44PC     H4A 1949   2.665   0.770   6.311  0.8439  1.8390  2.5314
   44PC     H4B 1950   2.513   0.830   6.375 -0.5041  0.9337  0.3072
   44PC     H4C 1951   2.529   0.826   6.195 -0.2685  1.5560  0.5940
   44PC     C35 1952   2.747   1.000   6.393 -0.2105 -0.6021  0.2877
   44PC     H5A 1953   2.840   0.942   6.386 -1.1067 -2.0793  0.2088
   44PC     H5B 1954   2.706   0.957   6.485 -0.0083 -0.8728  0.2544
   44PC     H5C 1955   2.775   1.103   6.412  0.1060 -1.0569  2.6491
   44PC     O33 1956   2.633   1.386   5.967  0.2925 -0.5922 -0.0769
   44PC     O34 1957   2.403   1.271   5.908 -0.1923 -0.7069 -0.3453
   44PC     O21 1958   2.425   1.002   5.574  0.5369  0.4101 -0.4579
   44PC     C21 1959   2.311   1.015   5.511 -0.1868  0.4141 -0.5472
   44PC     O22 1960   2.234   1.110   5.517  0.8119  0.5247 -0.3339
   45OL     C12 1961   2.279   0.893   5.439  0.0469 -0.5824  0.1775
   45OL     H2R 1962   2.186   0.850   5.477 -0.5217  0.0769 -0.4474
   45OL     H2S 1963   2.359   0.818   5.443  1.4514  0.5988 -3.0084
   45OL     C13 1964   2.261   0.912   5.284 -0.7107  0.3831  0.8287
   45OL     H3R 1965   2.179   0.983   5.269 -2.5348 -1.2144  2.5520
   45OL     H3S 1966   2.235   0.818   5.235  2.1156  0.1934 -0.4896
   45OL     C14 1967   2.390   0.959   5.214  0.1840  0.1802 -0.2381
   45OL     H4R 1968   2.475   0.895   5.234 -0.7731 -1.1916 -0.4025
   45OL     H4S 1969   2.408   1.060   5.252 -0.4595  0.2762 -0.1721
   45OL     C15 1970   2.362   0.979   5.057  0.0494 -0.3690 -0.4996
   45OL     H5R 1971   2.272   1.041   5.051  1.0280  1.1118 -0.3820
   45OL     H5S 1972   2.337   0.877   5.025 -3.1821  0.9189 -2.5450
   45OL     C16 1973   2.476   1.046   4.982 -0.1156 -0.1203  0.4859
   45OL     H6R 1974   2.570   0.999   5.010  0.8599  1.6768  0.3736
   45OL     H6S 1975   2.478   1.155   4.995 -0.4854  0.1490 -1.3796
   45OL     C17 1976   2.447   1.038   4.829  0.2072 -0.0140  0.1512
   45OL     H7R 1977   2.362   1.100   4.801 -0.2735 -0.3717  0.7892
   45OL     H7S 1978   2.424   0.933   4.808 -1.1680  0.3274 -0.1388
   45OL     C18 1979   2.565   1.064   4.738  0.7166  0.3155  0.7676
   45OL     H8R 1980   2.655   1.010   4.769  0.1887 -0.9311  0.1967
   45OL     H8S 1981   2.589   1.171   4.741 -1.9879  0.9764  2.1790
   45OL     C19 1982   2.539   1.034   4.589  0.2959 -0.2101  0.0488
   45OL     H9R 1983   2.480   0.942   4.583 -0.7357  0.4011  0.5101
   45OL    C110 1984   2.561   1.103   4.482 -0.5135  0.2406 -0.3108
   45OL    H10R 1985   2.528   1.059   4.388  1.5781 -1.7100 -0.2108
   45OL    C111 1986   2.636   1.227   4.476  0.1615 -0.7866  0.3204
   45OL    H11R 1987   2.673   1.267   4.571  0.8071  1.0153 -0.6431
   45OL    H11S 1988   2.571   1.310   4.446  1.4025  0.9965  2.2167
   45OL    C112 1989   2.759   1.220   4.381  0.1751 -0.5291  0.1547
   45OL    H12R 1990   2.731   1.170   4.288 -0.0328 -0.8508  0.3897
   45OL    H12S 1991   2.832   1.156   4.430  0.0530  0.0515  1.1451
   45OL    C113 1992   2.806   1.372   4.372 -0.3424 -0.5511  0.2608
   45OL    H13R 1993   2.834   1.415   4.469 -0.4139  1.3816 -0.5289
   45OL    H13S 1994   2.716   1.425   4.344 -0.0187  1.1915  2.2487
   45OL    C114 1995   2.931   1.398   4.276 -0.1635  0.2034  0.1121
   45OL    H14R 1996   2.904   1.352   4.181  0.3036 -1.1539  0.6137
   45OL    H14S 1997   3.017   1.336   4.299 -0.2062 -0.6016 -1.7585
   45OL    C115 1998   2.977   1.547   4.278 -0.2565 -0.4954  0.2706
   45OL    H15R 1999   3.018   1.557   4.378  0.8924  1.0230 -0.3093
   45OL    H15S 2000   2.887   1.608   4.273 -1.1725 -1.9083 -2.8671
   45OL    C116 2001   3.074   1.588   4.172 -0.3377 -0.1952  0.2403
   45OL    H16R 2002   3.033   1.559   4.075  0.2869  0.0425 -0.0970
   45OL    H16S 2003   3.160   1.522   4.181 -1.0265 -1.6069 -2.5779
   45OL    C117 2004   3.107   1.741   4.156  0.0927  0.5169 -0.5322
   45OL    H17R 2005   3.156   1.771   4.248  0.2701  0.2958 -0.5536
   45OL    H17S 2006   3.015   1.799   4.143 -0.0631  0.0490 -1.6637
   45OL    C118 2007   3.203   1.773   4.044  0.0337 -0.5305 -0.2083
   45OL    H18R 2008   3.279   1.695   4.051 -0.9835 -1.5026  0.2318
   45OL    H18S 2009   3.240   1.875   4.057  1.3439 -0.8854 -0.9641
   45OL    H18T 2010   3.156   1.763   3.946 -1.4759  0.7578  0.3426
   46PA    C116 2011   1.266  -0.254   4.211  0.5689 -0.2406  0.4268
   46PA    H16R 2012   1.270  -0.345   4.271 -0.5989  1.6503  3.6556
   46PA    H16S 2013   1.225  -0.278   4.112 -2.8397 -1.1286  1.9146
   46PA    H16T 2014   1.201  -0.186   4.267  2.1572  1.2056  0.5822
   46PA    C115 2015   1.407  -0.197   4.190  0.0622 -0.8874 -0.0226
   46PA    H15R 2016   1.445  -0.258   4.108 -1.7164 -0.9079 -0.8659
   46PA    H15S 2017   1.396  -0.093   4.158 -1.1695 -1.0450 -0.1570
   46PA    C114 2018   1.497  -0.206   4.315  0.2269  0.0858 -0.2167
   46PA    H14R 2019   1.456  -0.162   4.406  1.4130 -0.0839  0.4292
   46PA    H14S 2020   1.507  -0.309   4.352  0.0757 -0.2284 -1.0358
   46PA    C113 2021   1.636  -0.140   4.296  0.1265  0.1421 -0.8517
   46PA    H13R 2022   1.692  -0.181   4.212  2.3135 -0.8810  1.0061
   46PA    H13S 2023   1.633  -0.032   4.283  1.0074  0.6500  2.2038
   46PA    C112 2024   1.719  -0.156   4.425 -0.2599  0.0627  0.4836
   46PA    H12R 2025   1.724  -0.253   4.476 -0.5626  0.4168  1.2065
   46PA    H12S 2026   1.821  -0.143   4.390 -0.7060 -0.1026 -0.9608
   46PA    C111 2027   1.672  -0.048   4.530 -0.8623 -0.4939  0.1329
   46PA    H11R 2028   1.656   0.041   4.469 -3.1168 -0.0288  1.3061
   46PA    H11S 2029   1.582  -0.085   4.579 -1.5276  0.8683 -0.0120
   46PA    C110 2030   1.791  -0.021   4.631  0.0811 -0.0340 -0.6646
   46PA    H10R 2031   1.814  -0.114   4.683 -0.8361  0.1746  0.1464
   46PA    H10S 2032   1.883   0.013   4.584  0.5231 -0.4841 -0.1363
   46PA     C19 2033   1.754   0.078   4.748 -0.5826  0.3145  0.2193
   46PA     H9R 2034   1.727   0.176   4.709  0.2783  0.8801  1.0208
   46PA     H9S 2035   1.665   0.036   4.796 -1.4705 -0.2074 -1.7528
   46PA     C18 2036   1.867   0.093   4.845 -0.1071 -0.5000  0.3147
   46PA     H8R 2037   1.903   0.002   4.893 -0.4629 -1.0284 -0.4019
   46PA     H8S 2038   1.950   0.141   4.793 -0.9083  0.4488 -0.1146
   46PA     C17 2039   1.823   0.178   4.968  0.3850  0.0729 -0.0705
   46PA     H7R 2040   1.762   0.261   4.932 -0.7745 -0.1392  1.2905
   46PA     H7S 2041   1.758   0.120   5.035  0.4544 -1.9213 -1.6133
   46PA     C16 2042   1.945   0.226   5.047  0.1258  0.1551 -0.8470
   46PA     H6R 2043   2.012   0.142   5.067 -0.5872 -0.5750 -1.4319
   46PA     H6S 2044   2.001   0.294   4.983  1.6741 -1.8168 -1.7193
   46PA     C15 2045   1.909   0.296   5.182 -1.1097  0.0771 -0.4937
   46PA     H5R 2046   1.817   0.350   5.156 -2.2300 -1.9008 -0.8386
   46PA     H5S 2047   1.883   0.221   5.257  0.3334  0.2792  0.2375
   46PA     C14 2048   1.996   0.404   5.246 -0.2995 -0.0043  0.8998
   46PA     H4R 2049   2.100   0.374   5.258 -0.3253 -0.6204 -0.3166
   46PA     H4S 2050   2.006   0.488   5.176  0.5482  0.6402  1.7603
   46PA     C13 2051   1.926   0.450   5.373 -0.8094  0.6424  0.5926
   46PA     H3R 2052   1.829   0.490   5.342  0.3429  1.0183 -2.9840
   46PA     H3S 2053   1.901   0.368   5.441  0.5653 -0.2141  0.1023
   46PA     C12 2054   2.002   0.559   5.451  0.1444  0.2277 -0.0689
   46PA     H2R 2055   2.062   0.622   5.385  1.2186 -0.4851  0.1914
   46PA     H2S 2056   1.942   0.623   5.516 -2.5206 -1.1075 -1.0805
   47PC     C11 2057   2.107   0.493   5.539 -0.1830  0.2685 -0.7128
   47PC     O12 2058   2.101   0.385   5.594 -0.0876 -0.2282  0.0328
   47PC     O11 2059   2.226   0.563   5.561 -0.2205  0.5571 -0.0300
   47PC      C1 2060   2.315   0.499   5.665  0.1750  0.2773 -1.1210
   47PC      HR 2061   2.251   0.469   5.748  0.0048  0.2242 -1.2688
   47PC      HS 2062   2.361   0.406   5.631 -0.5927 -0.7346  0.4953
   47PC      C2 2063   2.423   0.595   5.709 -0.4023 -0.1996 -0.1084
   47PC      HX 2064   2.487   0.559   5.790  1.8725  1.4587 -1.0499
   47PC      C3 2065   2.370   0.735   5.753  0.2063 -0.0037 -0.2758
   47PC      HA 2066   2.449   0.807   5.777 -0.0092  0.7977 -1.8945
   47PC      HB 2067   2.305   0.774   5.675 -1.7542  1.2020  1.8315
   47PC     O31 2068   2.291   0.726   5.873  0.4033  0.8582 -0.0766
   47PC     P31 2069   2.359   0.684   6.013  0.3268  0.1065  0.2753
   47PC     O32 2070   2.348   0.523   6.014 -0.2847 -0.2377 -0.4497
   47PC     C31 2071   2.233   0.467   6.081  0.1113 -0.1360 -0.4945
   47PC     H1A 2072   2.186   0.536   6.152 -3.6046 -0.8886 -1.9977
   47PC     H1B 2073   2.154   0.443   6.010  1.3977 -2.3232 -1.2731
   47PC     C32 2074   2.272   0.341   6.162 -0.2256  0.2663  0.4223
   47PC     H2A 2075   2.331   0.273   6.100 -0.9091 -0.3875  0.4793
   47PC     H2B 2076   2.333   0.367   6.248  2.7439 -0.4184 -1.3218
   47PC     N31 2077   2.156   0.265   6.215  0.9578  0.2515  0.1300
   47PC     C33 2078   2.052   0.225   6.116  0.1324  0.4491  0.0554
   47PC     H3A 2079   2.094   0.221   6.016 -1.4143  1.3770 -0.6837
   47PC     H3B 2080   2.026   0.124   6.147 -0.1832 -0.3616 -2.6370
   47PC     H3C 2081   1.972   0.299   6.122  0.9311  1.2921  0.4262
   47PC     C34 2082   2.218   0.144   6.264  0.0722  0.3983  0.3892
   47PC     H4A 2083   2.237   0.078   6.179  2.1888  0.3475  0.8320
   47PC     H4B 2084   2.317   0.170   6.301  0.5676 -0.8621 -0.0021
   47PC     H4C 2085   2.155   0.099   6.340  0.2950 -0.4822  0.0584
   47PC     C35 2086   2.096   0.316   6.340 -0.7084 -0.2049  0.3206
   47PC     H5A 2087   2.173   0.298   6.414  0.5088  1.1996 -0.5443
   47PC     H5B 2088   2.004   0.260   6.359 -0.6526 -0.5992 -0.5281
   47PC     H5C 2089   2.079   0.422   6.325 -1.7696 -0.5705 -1.3476
   47PC     O33 2090   2.503   0.714   6.002 -0.7434  0.1733 -0.5891
   47PC     O34 2091   2.285   0.745   6.124 -0.0644  0.0863  0.4688
   47PC     O21 2092   2.509   0.613   5.595 -0.7001  0.7971 -0.0468
   47PC     C21 2093   2.606   0.525   5.569  0.0682 -0.7661 -0.1229
   47PC     O22 2094   2.632   0.436   5.638 -0.2580  0.6453 -0.0254
   48OL     C12 2095   2.684   0.559   5.443 -0.1680  0.1692 -0.3639
   48OL     H2R 2096   2.625   0.613   5.368 -0.3676  0.4844  0.0187
   48OL     H2S 2097   2.707   0.466   5.390 -1.0633  0.6499 -1.6683
   48OL     C13 2098   2.830   0.615   5.462  0.4315  0.4613  0.0032
   48OL     H3R 2099   2.894   0.616   5.373  1.8133 -3.2895  0.7664
   48OL     H3S 2100   2.892   0.558   5.532  1.6229  0.4561 -1.0150
   48OL     C14 2101   2.831   0.764   5.511  0.1764  0.4119 -0.8483
   48OL     H4R 2102   2.929   0.810   5.505 -0.6830  2.7792  1.3950
   48OL     H4S 2103   2.803   0.754   5.616 -1.7356  1.3355 -1.2224
   48OL     C15 2104   2.743   0.861   5.432 -0.9671 -0.1569 -0.5782
   48OL     H5R 2105   2.757   0.963   5.470  0.5030 -0.4679 -0.2123
   48OL     H5S 2106   2.641   0.826   5.443 -0.6422 -1.7760 -2.3671
   48OL     C16 2107   2.763   0.867   5.279  0.1125 -0.0896 -0.5125
   48OL     H6R 2108   2.679   0.924   5.237 -0.5142 -0.2810  0.4250
   48OL     H6S 2109   2.765   0.770   5.230  0.6189  0.6405 -1.9700
   48OL     C17 2110   2.892   0.929   5.236 -0.1399 -0.0541  0.1208
   48OL     H7R 2111   2.971   0.888   5.300 -1.7598 -1.9745  0.9721
   48OL     H7S 2112   2.891   1.035   5.264  2.5014 -0.3067  1.5397
   48OL     C18 2113   2.925   0.916   5.088  0.0899 -0.3262 -0.6849
   48OL     H8R 2114   2.842   0.947   5.024  0.0415 -0.6764 -0.7975
   48OL     H8S 2115   2.939   0.810   5.064  1.0810 -0.2062 -0.6723
   48OL     C19 2116   3.058   0.980   5.051  0.5765 -0.1700  0.2120
   48OL     H9R 2117   3.059   1.080   5.094 -0.3484 -1.2508  3.0394
   48OL    C110 2118   3.160   0.926   4.988 -0.2015 -0.2543 -0.1275
   48OL    H10R 2119   3.256   0.976   4.981 -0.6805  0.8473  0.8632
   48OL    C111 2120   3.175   0.783   4.951  1.1430  0.0821  0.6783
   48OL    H11R 2121   3.076   0.736   4.945  0.7018  0.9036  1.3748
   48OL    H11S 2122   3.236   0.718   5.014  3.0358  0.8261 -0.3050
   48OL    C112 2123   3.229   0.771   4.805 -1.2573 -0.3775 -0.8703
   48OL    H12R 2124   3.231   0.664   4.779 -0.1194 -1.2966  2.4878
   48OL    H12S 2125   3.335   0.797   4.804 -1.0328 -1.2526 -0.9815
   48OL    C113 2126   3.152   0.851   4.701  0.3248 -0.2923 -0.2286
   48OL    H13R 2127   3.180   0.819   4.601 -0.2542 -2.4424  0.2422
   48OL    H13S 2128   3.176   0.958   4.709 -0.0646 -0.3273  2.0641
   48OL    C114 2129   2.997   0.831   4.717 -0.3103 -0.0665  0.1314
   48OL    H14R 2130   2.958   0.890   4.801  2.8240  2.7892 -0.1991
   48OL    H14S 2131   2.970   0.726   4.731 -2.6826  0.2816 -1.3683
   48OL    C115 2132   2.921   0.884   4.596  0.3235  0.7997 -0.0429
   48OL    H15R 2133   2.963   0.978   4.563  1.7970 -0.0261 -0.5412
   48OL    H15S 2134   2.821   0.906   4.635 -1.1375 -1.1329 -2.3758
   48OL    C116 2135   2.913   0.789   4.479  0.6027  0.1441  0.1202
   48OL    H16R 2136   2.858   0.700   4.510 -1.1315  1.4344  0.9846
   48OL    H16S 2137   3.013   0.764   4.445  0.0647 -1.0292 -0.6426
   48OL    C117 2138   2.837   0.856   4.359 -0.9653  0.1749  0.8872
   48OL    H17R 2139   2.907   0.932   4.323  0.5529 -2.5135 -2.2989
   48OL    H17S 2140   2.738   0.891   4.391 -0.4413 -0.5051  3.4427
   48OL    C118 2141   2.816   0.764   4.233  0.1265 -0.0105  0.6508
   48OL    H18R 2142   2.747   0.682   4.257  0.8321 -0.7599  0.1574
   48OL    H18S 2143   2.908   0.728   4.187 -0.7186 -1.4629 -0.0049
   48OL    H18T 2144   2.762   0.821   4.157  1.6299 -0.3447 -0.7247
   49PA    C116 2145   3.309  -1.457   3.823 -0.0494 -0.5485  0.3205
   49PA    H16R 2146   3.252  -1.491   3.737  1.8381  0.5927 -1.4671
   49PA    H16S 2147   3.409  -1.501   3.814 -0.1328 -0.7350  0.2978
   49PA    H16T 2148   3.328  -1.352   3.803 -1.0726 -0.3188  0.5030
   49PA    C115 2149   3.245  -1.469   3.960  0.0894 -0.7876  0.0829
   49PA    H15R 2150   3.228  -1.574   3.985  1.0996 -1.4290 -1.7878
   49PA    H15S 2151   3.321  -1.436   4.032  1.8749 -2.6801 -0.7986
   49PA    C114 2152   3.108  -1.393   3.978 -0.1321  0.4747  0.1054
   49PA    H14R 2153   3.126  -1.285   3.969  1.7249  0.1789 -0.1866
   49PA    H14S 2154   3.044  -1.434   3.900 -0.9185  0.9639  0.4766
   49PA    C113 2155   3.049  -1.415   4.118  0.8487 -0.1413 -0.0172
   49PA    H13R 2156   2.943  -1.393   4.108  1.1376  1.1775 -0.3783
   49PA    H13S 2157   3.048  -1.520   4.146 -1.3090  0.0554  0.8439
   49PA    C112 2158   3.113  -1.338   4.239 -0.3831 -0.1568  0.1262
   49PA    H12R 2159   3.210  -1.376   4.270 -1.4095 -1.2577  2.1734
   49PA    H12S 2160   3.136  -1.237   4.205  1.7516 -0.9209 -0.9111
   49PA    C111 2161   3.018  -1.342   4.359  0.6770  0.1091  0.2581
   49PA    H11R 2162   2.932  -1.275   4.348  1.3103  1.0745  1.0206
   49PA    H11S 2163   2.990  -1.448   4.367  0.0624  0.2406 -0.0651
   49PA    C110 2164   3.094  -1.283   4.477  0.0856 -0.5480  0.1127
   49PA    H10R 2165   3.184  -1.344   4.483 -0.3242 -1.1319  0.3721
   49PA    H10S 2166   3.124  -1.178   4.470 -0.2293 -0.4995 -0.6187
   49PA     C19 2167   3.036  -1.309   4.618  1.0207 -0.1257 -0.3668
   49PA     H9R 2168   3.016  -1.212   4.662 -1.3450 -0.8325  0.2714
   49PA     H9S 2169   2.936  -1.354   4.609  0.8240 -0.1272  1.4325
   49PA     C18 2170   3.112  -1.393   4.718 -0.3367  0.0198  0.4468
   49PA     H8R 2171   3.114  -1.499   4.693  2.1249  0.4701 -1.7304
   49PA     H8S 2172   3.220  -1.376   4.713 -0.7739  3.5062 -0.1756
   49PA     C17 2173   3.049  -1.384   4.855 -0.9244  0.5822 -0.2341
   49PA     H7R 2174   3.021  -1.282   4.883 -1.3567  0.0820  1.2290
   49PA     H7S 2175   2.950  -1.431   4.852 -0.7333  0.0766  0.9945
   49PA     C16 2176   3.135  -1.441   4.968  0.5246 -0.0363  0.7512
   49PA     H6R 2177   3.149  -1.545   4.938 -0.7644 -0.6351  2.0970
   49PA     H6S 2178   3.234  -1.396   4.979  0.8296 -0.7634  1.0356
   49PA     C15 2179   3.079  -1.439   5.114 -0.0300  0.7881  0.2088
   49PA     H5R 2180   3.153  -1.493   5.171  0.8427  0.8037 -0.8731
   49PA     H5S 2181   3.080  -1.336   5.149  1.6727  0.6183  0.7172
   49PA     C14 2182   2.932  -1.496   5.129  0.1371 -0.2340  0.2886
   49PA     H4R 2183   2.867  -1.440   5.061  0.8314  1.1495  0.7284
   49PA     H4S 2184   2.929  -1.600   5.098 -0.8430 -0.0380 -0.3078
   49PA     C13 2185   2.880  -1.473   5.272 -0.1369 -0.4352  0.3433
   49PA     H3R 2186   2.953  -1.519   5.340  4.2378  1.0339 -2.8986
   49PA     H3S 2187   2.880  -1.367   5.298 -2.1837  0.1704 -1.8101
   49PA     C12 2188   2.740  -1.535   5.293 -0.4673  0.0254  0.3495
   49PA     H2R 2189   2.663  -1.495   5.226 -1.2142 -0.8396  0.6698
   49PA     H2S 2190   2.745  -1.639   5.258  1.3658  0.6891 -1.5596
   50PC     C11 2191   2.685  -1.534   5.433 -0.1636  0.1732  0.1225
   50PC     O12 2192   2.762  -1.531   5.526  0.0170 -0.5775  0.7810
   50PC     O11 2193   2.552  -1.521   5.434  0.9507  0.2182 -0.0279
   50PC      C1 2194   2.488  -1.523   5.566  0.5127  0.1886  0.6000
   50PC      HR 2195   2.499  -1.625   5.602 -0.3103 -0.5213 -1.0802
   50PC      HS 2196   2.538  -1.451   5.632  0.8751 -0.6025  1.1990
   50PC      C2 2197   2.338  -1.502   5.558 -0.1803 -0.0258 -0.4050
   50PC      HX 2198   2.312  -1.406   5.512 -0.5998  0.1619  0.2098
   50PC      C3 2199   2.283  -1.504   5.705  1.0314 -0.5610 -0.3731
   50PC      HA 2200   2.326  -1.414   5.749  2.6494 -0.0427 -2.7992
   50PC      HB 2201   2.174  -1.500   5.708  1.0000  0.4045 -2.0275
   50PC     O31 2202   2.331  -1.628   5.767  0.5517 -0.2393 -0.4508
   50PC     P31 2203   2.323  -1.645   5.930  0.0878  0.0737 -0.2898
   50PC     O32 2204   2.458  -1.588   5.986 -0.2471 -0.0256  0.4396
   50PC     C31 2205   2.476  -1.450   5.988  0.0241 -0.3083  0.1610
   50PC     H1A 2206   2.482  -1.405   5.889 -2.6696  0.1603  0.1269
   50PC     H1B 2207   2.393  -1.414   6.051 -0.3494 -1.7232  0.5063
   50PC     C32 2208   2.609  -1.432   6.052  0.0129 -0.2869 -0.4106
   50PC     H2A 2209   2.693  -1.468   5.993  1.0804  1.4017  0.0100
   50PC     H2B 2210   2.621  -1.324   6.058  2.5513 -0.5340 -0.0695
   50PC     N31 2211   2.642  -1.479   6.190 -0.8326 -0.2894  0.5895
   50PC     C33 2212   2.780  -1.437   6.222  0.0134  0.1594  0.0297
   50PC     H3A 2213   2.846  -1.471   6.142 -0.1983  0.2216 -0.1774
   50PC     H3B 2214   2.781  -1.328   6.229 -0.5438  0.1146  0.8811
   50PC     H3C 2215   2.810  -1.476   6.319  1.6184 -1.1016 -0.9173
   50PC     C34 2216   2.549  -1.426   6.300 -0.3490 -0.4686 -0.2310
   50PC     H4A 2217   2.552  -1.317   6.299  1.5257 -0.4852 -1.0488
   50PC     H4B 2218   2.451  -1.461   6.269 -0.0039  0.6318 -2.8027
   50PC     H4C 2219   2.593  -1.474   6.388  1.6121  1.9720  0.2118
   50PC     C35 2220   2.644  -1.634   6.196  0.3187  0.1008 -0.1316
   50PC     H5A 2221   2.544  -1.677   6.184  0.0172  1.0034 -0.9788
   50PC     H5B 2222   2.688  -1.656   6.293  0.4232 -0.1424 -0.2337
   50PC     H5C 2223   2.709  -1.663   6.114 -0.5827  0.4490 -0.9887
   50PC     O33 2224   2.210  -1.564   5.980 -0.6130 -0.4112  0.6456
   50PC     O34 2225   2.321  -1.789   5.970  0.8415  0.5706  0.0057
   50PC     O21 2226   2.279  -1.616   5.488 -0.2571  0.4889 -0.6658
   50PC     C21 2227   2.191  -1.599   5.388  0.4491 -0.6588 -0.6293
   50PC     O22 2228   2.155  -1.487   5.353 -0.4310  0.2814 -0.0515
   51OL     C12 2229   2.136  -1.732   5.343 -0.3722 -0.8234 -0.1708
   51OL     H2R 2230   2.046  -1.718   5.283 -0.4861  0.4151  0.2556
   51OL     H2S 2231   2.095  -1.791   5.425  1.8102  0.0516  1.6390
   51OL     C13 2232   2.233  -1.810   5.257  0.2623 -0.1642 -0.2030
   51OL     H3R 2233   2.195  -1.911   5.241 -1.2854  0.0654  1.6265
   51OL     H3S 2234   2.322  -1.825   5.319  0.5576 -0.3584 -0.6678
   51OL     C14 2235   2.281  -1.743   5.124 -0.2947  0.0717  0.3150
   51OL     H4R 2236   2.369  -1.795   5.086 -0.6522 -0.9726  0.8815
   51OL     H4S 2237   2.307  -1.640   5.151  1.2825 -0.5720  1.4281
   51OL     C15 2238   2.166  -1.738   5.024  0.2105  0.6639  0.2775
   51OL     H5R 2239   2.080  -1.685   5.065 -0.5162 -1.4574  1.6929
   51OL     H5S 2240   2.135  -1.838   4.993 -0.6524  0.8844  0.4233
   51OL     C16 2241   2.216  -1.658   4.904  0.2575 -0.4216  0.0546
   51OL     H6R 2242   2.310  -1.698   4.866 -0.5179 -2.4104  0.0758
   51OL     H6S 2243   2.237  -1.555   4.933  2.0343 -0.5760 -0.5430
   51OL     C17 2244   2.117  -1.634   4.795 -0.5468 -0.2804  0.4708
   51OL     H7R 2245   2.021  -1.605   4.839 -0.5570 -0.4824  0.5848
   51OL     H7S 2246   2.104  -1.730   4.743  2.6390  0.4930 -2.0766
   51OL     C18 2247   2.154  -1.534   4.683 -0.7031  0.0915  0.2580
   51OL     H8R 2248   2.236  -1.573   4.624 -0.8276 -0.6931  0.5936
   51OL     H8S 2249   2.191  -1.445   4.736  1.6935 -0.3433 -0.5772
   51OL     C19 2250   2.026  -1.500   4.607  0.1895  0.0998  0.7057
   51OL     H9R 2251   1.937  -1.491   4.670  0.1921 -1.4008  0.9680
   51OL    C110 2252   2.008  -1.494   4.475  0.2787 -0.3175 -0.5211
   51OL    H10R 2253   1.910  -1.469   4.435 -1.0575  0.8320  3.0486
   51OL    C111 2254   2.123  -1.505   4.382 -0.6855 -0.2406  0.8976
   51OL    H11R 2255   2.134  -1.613   4.368  0.6019 -0.3739  2.5989
   51OL    H11S 2256   2.217  -1.466   4.423 -0.0691  0.0673 -0.7233
   51OL    C112 2257   2.068  -1.436   4.256 -0.3408 -0.0301 -0.4025
   51OL    H12R 2258   2.012  -1.347   4.286 -2.1882 -1.8484  1.9331
   51OL    H12S 2259   1.993  -1.500   4.209 -1.2853  0.5655  0.2439
   51OL    C113 2260   2.176  -1.388   4.157 -0.0028 -0.4874  0.0068
   51OL    H13R 2261   2.233  -1.467   4.108  1.8630  1.6965 -1.5830
   51OL    H13S 2262   2.247  -1.319   4.203  0.4912  0.0505 -1.4799
   51OL    C114 2263   2.102  -1.319   4.044 -0.1037 -0.2177  0.1316
   51OL    H14R 2264   2.037  -1.241   4.084 -1.8775 -2.5590  2.2043
   51OL    H14S 2265   2.049  -1.395   3.987 -1.8138  0.7501  0.3603
   51OL    C115 2266   2.203  -1.255   3.949 -0.2929  0.2409  0.1533
   51OL    H15R 2267   2.266  -1.340   3.924  1.0028  1.2263 -0.0753
   51OL    H15S 2268   2.265  -1.181   4.000 -1.1816  0.8965  0.3020
   51OL    C116 2269   2.141  -1.185   3.818  0.1675  0.1719  0.0029
   51OL    H16R 2270   2.067  -1.112   3.851 -0.4032 -0.3392 -0.1300
   51OL    H16S 2271   2.097  -1.266   3.759  2.0675 -1.1962  0.3629
   51OL    C117 2272   2.231  -1.112   3.723 -0.5716  0.9226 -0.0324
   51OL    H17R 2273   2.187  -1.077   3.630  2.3528  2.0777 -1.0970
   51OL    H17S 2274   2.307  -1.187   3.700 -1.1610 -0.5009  2.2959
   51OL    C118 2275   2.307  -0.991   3.773  0.1643 -0.0926  0.7283
   51OL    H18R 2276   2.353  -0.942   3.687 -0.2944 -0.8648  0.0305
   51OL    H18S 2277   2.377  -1.019   3.853 -0.2204 -0.6247  0.8806
   51OL    H18T 2278   2.235  -0.921   3.816  0.7337  0.5140  0.7193
   52PA    C116 2279   3.619   5.520   4.508 -0.7466 -0.0332  0.7096
   52PA    H16R 2280   3.593   5.625   4.527 -3.4612 -0.7909  1.5262
   52PA    H16S 2281   3.625   5.512   4.400 -0.3262  2.1618  0.5070
   52PA    H16T 2282   3.724   5.501   4.532  1.6150  3.2237 -4.9642
   52PA    C115 2283   3.538   5.413   4.574 -0.1859  0.1769  0.2726
   52PA    H15R 2284   3.576   5.311   4.567 -1.0465 -0.1190 -0.2300
   52PA    H15S 2285   3.527   5.424   4.682 -0.7939 -0.0408  0.2395
   52PA    C114 2286   3.394   5.414   4.514 -0.3559 -0.2170 -0.2092
   52PA    H14R 2287   3.329   5.491   4.555 -0.6987 -0.5525 -0.1190
   52PA    H14S 2288   3.406   5.428   4.406  1.6764 -1.8676 -0.2702
   52PA    C113 2289   3.319   5.278   4.532 -0.0248 -0.4092  0.0917
   52PA    H13R 2290   3.235   5.281   4.462  0.8499  0.5855 -0.9555
   52PA    H13S 2291   3.378   5.192   4.499 -2.5358 -2.1541 -0.1313
   52PA    C112 2292   3.272   5.263   4.677  0.3012  0.0312  0.1745
   52PA    H12R 2293   3.270   5.358   4.731 -1.0170 -0.0256  0.2565
   52PA    H12S 2294   3.165   5.240   4.674 -0.1509  1.8101  1.2652
   52PA    C111 2295   3.341   5.165   4.771 -0.0058  0.1551  0.6125
   52PA    H11R 2296   3.334   5.062   4.736  0.6479 -0.3881  2.0152
   52PA    H11S 2297   3.447   5.189   4.767 -0.1939  1.2445  1.5505
   52PA    C110 2298   3.282   5.157   4.917 -0.4602 -0.0528  0.2354
   52PA    H10R 2299   3.175   5.174   4.909 -0.5069 -0.5411 -0.2257
   52PA    H10S 2300   3.302   5.064   4.970  1.1797  0.0567 -0.1363
   52PA     C19 2301   3.352   5.261   5.006 -0.2608 -0.0142  1.0095
   52PA     H9R 2302   3.459   5.238   4.997 -0.5003 -0.6106 -0.4726
   52PA     H9S 2303   3.338   5.365   4.974  3.1281  0.6703  1.2885
   52PA     C18 2304   3.315   5.245   5.157 -0.2788 -0.6165 -0.6765
   52PA     H8R 2305   3.336   5.144   5.192  1.7266  0.1171  0.3627
   52PA     H8S 2306   3.390   5.309   5.204  1.1425 -0.5369 -2.9198
   52PA     C17 2307   3.167   5.283   5.193 -0.1232  0.5249  0.2341
   52PA     H7R 2308   3.139   5.387   5.176  1.1614  1.0982  1.3902
   52PA     H7S 2309   3.099   5.220   5.135 -1.6440 -0.2584  2.7409
   52PA     C16 2310   3.128   5.246   5.341  0.4132 -0.0954  0.5271
   52PA     H6R 2311   3.199   5.291   5.411  0.9833 -1.8129  1.1202
   52PA     H6S 2312   3.028   5.289   5.353 -0.0632 -0.7623 -0.8310
   52PA     C15 2313   3.136   5.096   5.377 -0.1047  0.7243 -0.4600
   52PA     H5R 2314   3.063   5.037   5.322 -0.5540  0.2840  0.5900
   52PA     H5S 2315   3.230   5.052   5.343 -0.1573  0.2414  0.0177
   52PA     C14 2316   3.119   5.072   5.528  0.6814  0.6046 -0.3696
   52PA     H4R 2317   3.180   5.136   5.591 -0.0840 -0.2071  1.2882
   52PA     H4S 2318   3.016   5.104   5.545 -0.0058 -0.7225 -1.7604
   52PA     C13 2319   3.131   4.917   5.566  0.2847 -0.8540 -0.4704
   52PA     H3R 2320   3.116   4.921   5.674  0.3239  1.2970 -0.5081
   52PA     H3S 2321   3.043   4.871   5.520  0.8655 -1.1955 -1.2540
   52PA     C12 2322   3.272   4.853   5.536 -0.2451  0.3550  0.1755
   52PA     H2R 2323   3.272   4.824   5.431 -4.0029 -0.8529  0.3380
   52PA     H2S 2324   3.346   4.930   5.558 -0.8941  0.9743  0.2405
   53PC     C11 2325   3.296   4.729   5.613  0.0367  0.5938 -0.1029
   53PC     O12 2326   3.218   4.677   5.693  0.4861 -0.1956 -0.1634
   53PC     O11 2327   3.411   4.669   5.570  0.2020 -0.0217  0.4115
   53PC      C1 2328   3.428   4.530   5.612  0.9850 -0.6472  0.3223
   53PC      HR 2329   3.533   4.510   5.587  0.4406 -0.7031 -2.1368
   53PC      HS 2330   3.420   4.526   5.721  1.7944 -0.0179  0.4175
   53PC      C2 2331   3.331   4.430   5.540 -0.4250 -0.4913 -0.9000
   53PC      HX 2332   3.227   4.461   5.547 -0.6773 -1.4164 -0.3874
   53PC      C3 2333   3.344   4.287   5.582  0.0307  0.0789  0.0989
   53PC      HA 2334   3.299   4.220   5.509  0.7926  1.5990 -1.8751
   53PC      HB 2335   3.450   4.269   5.599  0.4489  0.7392 -1.5408
   53PC     O31 2336   3.278   4.274   5.710  0.2425  0.3588 -0.3688
   53PC     P31 2337   3.351   4.226   5.843  0.0162 -0.0211  0.1622
   53PC     O32 2338   3.347   4.074   5.810 -0.0061  0.5328  0.2403
   53PC     C31 2339   3.241   3.989   5.848  0.3413 -0.1664  0.1804
   53PC     H1A 2340   3.145   4.041   5.850  1.7330  2.5645  0.1987
   53PC     H1B 2341   3.233   3.908   5.774 -2.0009 -1.1136  1.3614
   53PC     C32 2342   3.267   3.921   5.986  0.3018 -0.7709  0.4180
   53PC     H2A 2343   3.271   3.993   6.067  1.3814 -0.8232  0.4249
   53PC     H2B 2344   3.178   3.865   6.015 -0.1783 -0.4398 -0.3877
   53PC     N31 2345   3.381   3.824   6.014 -0.0633  0.3768 -0.0604
   53PC     C33 2346   3.374   3.765   6.150  0.1385 -0.6572 -0.3878
   53PC     H3A 2347   3.277   3.718   6.169  0.5065 -0.6038  1.9357
   53PC     H3B 2348   3.452   3.689   6.157 -0.2472 -1.0845 -0.6976
   53PC     H3C 2349   3.404   3.832   6.230  2.6275 -0.2774 -1.5320
   53PC     C34 2350   3.367   3.711   5.929 -0.7864  0.9208 -0.4331
   53PC     H4A 2351   3.279   3.652   5.953 -1.5590  2.4105  0.5530
   53PC     H4B 2352   3.366   3.737   5.823  1.2683  1.9691 -0.2427
   53PC     H4C 2353   3.455   3.647   5.937 -0.2545  1.7342  0.6254
   53PC     C35 2354   3.510   3.887   5.992 -0.5227 -0.3562  0.1077
   53PC     H5A 2355   3.595   3.819   6.000  0.8324  1.3161  0.5405
   53PC     H5B 2356   3.521   3.966   6.067 -0.0187  1.4859 -1.7765
   53PC     H5C 2357   3.515   3.938   5.895  2.4220  1.0546  0.8683
   53PC     O33 2358   3.491   4.273   5.844  0.0264 -0.5682  0.2990
   53PC     O34 2359   3.261   4.249   5.955  0.8320  0.1497 -0.5756
   53PC     O21 2360   3.364   4.427   5.400 -0.5177  0.1931 -0.6615
   53PC     C21 2361   3.296   4.506   5.313 -0.1545  0.6228 -0.3905
   53PC     O22 2362   3.196   4.571   5.343  0.1911  0.2838  0.4946
   54OL     C12 2363   3.346   4.502   5.168  0.1264 -0.0255 -0.2967
   54OL     H2R 2364   3.454   4.518   5.164  0.1460  0.2022  0.8200
   54OL     H2S 2365   3.294   4.577   5.108 -0.1645  0.6977  0.8265
   54OL     C13 2366   3.321   4.359   5.112  0.2957  0.0973  0.3467
   54OL     H3R 2367   3.231   4.319   5.158  0.0309  0.6419  0.3126
   54OL     H3S 2368   3.400   4.293   5.148  1.4432  2.0656  1.6522
   54OL     C14 2369   3.300   4.358   4.962 -0.0065 -0.0945  0.3678
   54OL     H4R 2370   3.228   4.440   4.953  0.5080  0.4006  0.6492
   54OL     H4S 2371   3.249   4.267   4.933 -0.2736 -0.0036  0.5450
   54OL     C15 2372   3.433   4.387   4.886 -0.3893  0.4310  0.1269
   54OL     H5R 2373   3.491   4.295   4.892  0.3223  0.9580  3.1479
   54OL     H5S 2374   3.492   4.469   4.927 -1.1089 -0.4250  3.1366
   54OL     C16 2375   3.408   4.425   4.737 -0.4041 -0.6796 -0.1614
   54OL     H6R 2376   3.506   4.438   4.689 -0.8933  1.6941 -0.6339
   54OL     H6S 2377   3.371   4.525   4.756  0.7689 -0.1495 -0.5338
   54OL     C17 2378   3.307   4.348   4.654 -0.5061 -0.1050  0.1324
   54OL     H7R 2379   3.205   4.373   4.687 -0.4231 -0.3250  0.5612
   54OL     H7S 2380   3.332   4.247   4.689  1.0240  0.4346  0.6515
   54OL     C18 2381   3.307   4.370   4.507  0.0100  0.5271 -0.5269
   54OL     H8R 2382   3.237   4.298   4.465  0.1955 -1.0243  1.6292
   54OL     H8S 2383   3.405   4.342   4.466  0.4303  0.4527  0.5101
   54OL     C19 2384   3.266   4.515   4.479 -0.2865 -0.7683  0.6739
   54OL     H9R 2385   3.192   4.557   4.547 -0.1363 -1.2469  1.1405
   54OL    C110 2386   3.312   4.592   4.380  0.1538  0.1487 -0.1076
   54OL    H10R 2387   3.269   4.690   4.364 -1.0153 -0.2067  0.7125
   54OL    C111 2388   3.412   4.550   4.273  0.2070 -0.4390  0.4299
   54OL    H11R 2389   3.381   4.596   4.179 -1.1337 -0.2456  0.9460
   54OL    H11S 2390   3.403   4.444   4.252  1.9683 -0.4393 -0.4712
   54OL    C112 2391   3.560   4.591   4.304  0.2536 -0.2005 -0.0129
   54OL    H12R 2392   3.621   4.551   4.223 -1.7314  0.0211 -1.7247
   54OL    H12S 2393   3.598   4.544   4.395 -0.6828 -1.6738 -0.3426
   54OL    C113 2394   3.590   4.750   4.309  0.1790  0.0677 -0.7934
   54OL    H13R 2395   3.580   4.794   4.209 -1.5371  0.9997 -0.2515
   54OL    H13S 2396   3.697   4.750   4.332  0.2032  0.7819 -0.8934
   54OL    C114 2397   3.520   4.833   4.417 -0.0724 -0.0612 -0.6259
   54OL    H14R 2398   3.412   4.815   4.416 -0.1525  0.4331 -1.5566
   54OL    H14S 2399   3.540   4.939   4.402  1.2419 -0.3569 -1.0639
   54OL    C115 2400   3.587   4.794   4.552  0.3997  0.6549  0.3669
   54OL    H15R 2401   3.692   4.823   4.543  0.1557  1.6947  0.7833
   54OL    H15S 2402   3.595   4.685   4.564 -0.5794  0.3985 -1.0660
   54OL    C116 2403   3.519   4.858   4.668  0.0435 -0.5231 -0.6264
   54OL    H16R 2404   3.414   4.833   4.681 -0.1864  0.8737  0.4901
   54OL    H16S 2405   3.520   4.967   4.659  0.5543 -0.5806 -1.3636
   54OL    C117 2406   3.596   4.832   4.802  0.2829 -0.3052  0.0602
   54OL    H17R 2407   3.699   4.866   4.788 -0.0812  1.1421  0.6747
   54OL    H17S 2408   3.597   4.724   4.816 -0.2387 -0.5267 -1.4363
   54OL    C118 2409   3.550   4.902   4.930 -0.0824  0.0946 -0.3308
   54OL    H18R 2410   3.554   5.011   4.927 -0.0867  0.0842 -0.9424
   54OL    H18S 2411   3.610   4.861   5.011  0.4379  1.8622  0.2191
   54OL    H18T 2412   3.445   4.876   4.948  0.3119 -1.4488 -0.0737
   55PA    C116 2413   4.421   3.184   3.834 -0.2826 -0.3899  0.1910
   55PA    H16R 2414   4.402   3.273   3.896  1.2535 -1.7235  2.7647
   55PA    H16S 2415   4.351   3.108   3.868 -0.8229 -0.4861 -1.1057
   55PA    H16T 2416   4.408   3.200   3.727  0.5616 -0.8917  0.0029
   55PA    C115 2417   4.563   3.134   3.848 -0.4688 -0.4087  0.1690
   55PA    H15R 2418   4.574   3.046   3.785  0.3723 -1.2168  1.3947
   55PA    H15S 2419   4.636   3.210   3.822 -2.1629  0.7941 -1.2851
   55PA    C114 2420   4.611   3.079   3.981 -0.3538 -0.1873  0.0082
   55PA    H14R 2421   4.549   2.991   4.001  2.1799 -1.8257  1.1430
   55PA    H14S 2422   4.712   3.040   3.965  0.5543  2.1480 -0.3001
   55PA    C113 2423   4.608   3.169   4.107  0.2552 -0.6591 -0.2413
   55PA    H13R 2424   4.662   3.262   4.090 -0.9880  0.0364 -0.4466
   55PA    H13S 2425   4.510   3.212   4.129  1.7179  1.6176  2.3705
   55PA    C112 2426   4.678   3.105   4.229  0.5160  0.1056  0.3324
   55PA    H12R 2427   4.626   3.009   4.231  2.3073 -0.8815  1.0052
   55PA    H12S 2428   4.783   3.081   4.214  0.2973  0.4720 -2.3623
   55PA    C111 2429   4.663   3.170   4.363 -0.3813  0.1912  0.4074
   55PA    H11R 2430   4.714   3.266   4.352  0.1329 -0.2905 -2.2178
   55PA    H11S 2431   4.558   3.192   4.382 -0.5647  1.3868 -1.6311
   55PA    C110 2432   4.716   3.098   4.492  0.8328 -0.7538 -0.2380
   55PA    H10R 2433   4.646   3.018   4.517 -1.1879  0.9177 -0.2867
   55PA    H10S 2434   4.820   3.070   4.474  1.1757 -1.3644  2.2583
   55PA     C19 2435   4.720   3.184   4.619 -0.1290  0.0267  0.3042
   55PA     H9R 2436   4.801   3.256   4.608  1.1562 -1.4571 -0.2556
   55PA     H9S 2437   4.624   3.235   4.610  0.0427 -0.1014 -3.7246
   55PA     C18 2438   4.729   3.103   4.752 -0.2660  0.1253  0.5153
   55PA     H8R 2439   4.644   3.034   4.751  0.3019 -0.5821  0.0351
   55PA     H8S 2440   4.821   3.050   4.730  0.5049  2.2595 -1.9478
   55PA     C17 2441   4.721   3.194   4.866 -0.2936 -0.1439 -0.5396
   55PA     H7R 2442   4.820   3.241   4.875 -0.1933 -0.7386  2.9032
   55PA     H7S 2443   4.651   3.273   4.841  1.0939  0.8920 -1.2986
   55PA     C16 2444   4.672   3.127   5.000 -0.2365  0.8544  0.6450
   55PA     H6R 2445   4.581   3.071   4.981 -0.7177  0.3233  3.9035
   55PA     H6S 2446   4.746   3.053   5.031  1.2509  0.9250 -2.4072
   55PA     C15 2447   4.650   3.233   5.115 -0.3892  0.0102 -0.0303
   55PA     H5R 2448   4.742   3.278   5.153 -0.3862  0.2242 -0.2863
   55PA     H5S 2449   4.584   3.312   5.077 -1.1774 -0.6435 -0.0564
   55PA     C14 2450   4.589   3.164   5.236 -0.2275  0.0054 -0.0646
   55PA     H4R 2451   4.482   3.160   5.217  0.1910  0.2113 -2.7712
   55PA     H4S 2452   4.622   3.060   5.240  2.1890  0.7358  0.8749
   55PA     C13 2453   4.616   3.247   5.371  0.8304 -0.1031  0.8595
   55PA     H3R 2454   4.723   3.265   5.384  0.6253  1.8137  0.2449
   55PA     H3S 2455   4.564   3.342   5.355 -1.0631 -0.8040  2.4854
   55PA     C12 2456   4.566   3.195   5.505  0.0861  0.1378 -0.0057
   55PA     H2R 2457   4.458   3.186   5.496  0.1351 -0.7304  0.2664
   55PA     H2S 2458   4.615   3.104   5.539  1.8008  1.2382  0.6107
   56PC     C11 2459   4.580   3.308   5.606 -0.3380  0.3133 -0.3355
   56PC     O12 2460   4.592   3.424   5.581  0.1707  0.0339  0.4848
   56PC     O11 2461   4.569   3.256   5.733  0.1819 -0.4711  0.2372
   56PC      C1 2462   4.606   3.334   5.852 -0.6982 -0.2657 -0.2397
   56PC      HR 2463   4.566   3.436   5.855 -0.0036  0.0215 -0.6061
   56PC      HS 2464   4.563   3.286   5.941 -0.7042  0.4558  0.1535
   56PC      C2 2465   4.760   3.334   5.858  0.2803 -0.2508 -0.3149
   56PC      HX 2466   4.792   3.233   5.831 -0.2096 -0.0878 -1.5578
   56PC      C3 2467   4.819   3.369   5.997  0.2890  0.4271  0.2120
   56PC      HA 2468   4.769   3.316   6.078 -2.7928  3.2573  0.3837
   56PC      HB 2469   4.927   3.353   5.993  0.4268  1.3403  0.0867
   56PC     O31 2470   4.801   3.506   6.025 -0.3917 -0.1325 -0.6186
   56PC     P31 2471   4.712   3.567   6.146  0.3578 -0.2629  0.1913
   56PC     O32 2472   4.774   3.514   6.277 -0.6667  0.0006 -0.3386
   56PC     C31 2473   4.918   3.519   6.284 -0.1687 -0.1059  0.0564
   56PC     H1A 2474   4.966   3.449   6.215 -0.7185  1.2945 -1.8290
   56PC     H1B 2475   4.945   3.623   6.263 -0.4344 -0.0284  0.1041
   56PC     C32 2476   4.942   3.477   6.426 -0.1418  0.8671  0.0075
   56PC     H2A 2477   4.897   3.547   6.496 -2.1946  0.6406 -1.0276
   56PC     H2B 2478   4.908   3.375   6.445  1.5615  0.6618  2.5832
   56PC     N31 2479   5.092   3.467   6.476 -0.3993  0.2168 -0.4073
   56PC     C33 2480   5.166   3.357   6.407 -0.2047 -0.0832  0.3864
   56PC     H3A 2481   5.257   3.327   6.459  0.1554  2.6756  1.4686
   56PC     H3B 2482   5.107   3.265   6.415  1.1246 -0.8234  2.3490
   56PC     H3C 2483   5.184   3.390   6.304 -1.3155 -0.6459 -0.0027
   56PC     C34 2484   5.154   3.596   6.464 -0.3228  0.6026  0.2821
   56PC     H4A 2485   5.086   3.675   6.493 -2.9098 -0.6876 -1.8037
   56PC     H4B 2486   5.248   3.597   6.519 -2.1213 -0.0542  3.6284
   56PC     H4C 2487   5.172   3.603   6.356  0.5570  1.9893  0.5050
   56PC     C35 2488   5.093   3.442   6.624 -0.2453  0.2964  0.0335
   56PC     H5A 2489   5.198   3.442   6.655  0.4183  1.9810 -1.9461
   56PC     H5B 2490   5.049   3.344   6.641  1.4381 -0.3258  1.0821
   56PC     H5C 2491   5.034   3.518   6.675 -0.6624 -0.1275  0.1835
   56PC     O33 2492   4.738   3.712   6.146 -0.6847 -0.4746  0.6303
   56PC     O34 2493   4.575   3.510   6.140 -0.2400  0.2907 -0.2496
   56PC     O21 2494   4.810   3.419   5.753  0.0207  0.8978  0.2614
   56PC     C21 2495   4.929   3.395   5.697 -0.1728  0.2274 -0.0002
   56PC     O22 2496   4.995   3.294   5.714  0.5934 -0.2052  0.5499
   57OL     C12 2497   4.963   3.499   5.598  0.0683 -0.0084  0.6973
   57OL     H2R 2498   5.072   3.501   5.609  0.1277  1.3064  0.0941
   57OL     H2S 2499   4.933   3.601   5.622  1.5597  0.6402  0.0102
   57OL     C13 2500   4.921   3.463   5.455 -0.3616 -0.6470  0.7029
   57OL     H3R 2501   4.813   3.453   5.445 -0.2414 -1.6197  0.2972
   57OL     H3S 2502   4.971   3.374   5.416  1.5215  1.1851 -1.3488
   57OL     C14 2503   4.945   3.584   5.358  0.2712 -0.6184  0.0443
   57OL     H4R 2504   5.050   3.612   5.365  0.0127  0.6946 -0.9698
   57OL     H4S 2505   4.883   3.670   5.387  0.5421 -0.2517 -0.4477
   57OL     C15 2506   4.889   3.538   5.221 -0.4060  0.1295 -0.3714
   57OL     H5R 2507   4.781   3.534   5.238 -0.4031 -0.1945 -0.4236
   57OL     H5S 2508   4.930   3.443   5.185  0.0431  0.0780  0.2516
   57OL     C16 2509   4.909   3.646   5.115  0.6190 -0.1110 -1.1604
   57OL     H6R 2510   5.013   3.640   5.081  0.4010  0.1440 -1.8717
   57OL     H6S 2511   4.874   3.743   5.152  0.6291 -0.4642 -0.1792
   57OL     C17 2512   4.816   3.631   4.993  0.5438  0.2716 -0.3909
   57OL     H7R 2513   4.790   3.735   4.971 -1.6475  0.2202  1.5823
   57OL     H7S 2514   4.720   3.584   5.014  1.1600 -0.7894  0.1377
   57OL     C18 2515   4.880   3.556   4.870 -0.2127  0.7704  0.4984
   57OL     H8R 2516   4.909   3.458   4.909 -0.0110  0.3139 -0.7613
   57OL     H8S 2517   4.966   3.608   4.829 -0.1763 -0.1281 -0.6046
   57OL     C19 2518   4.786   3.534   4.754  0.5719 -0.1251  0.1637
   57OL     H9R 2519   4.724   3.445   4.758  2.6472 -1.8164 -2.1415
   57OL    C110 2520   4.784   3.607   4.645 -0.1863 -0.4500  0.4167
   57OL    H10R 2521   4.718   3.578   4.564 -0.9562  0.1625  0.8162
   57OL    C111 2522   4.858   3.736   4.614 -0.4140  0.1799 -0.3327
   57OL    H11R 2523   4.930   3.713   4.535  0.7069  0.2068  0.6391
   57OL    H11S 2524   4.911   3.773   4.702 -0.7839 -2.0415  0.9212
   57OL    C112 2525   4.758   3.839   4.550 -0.5212  0.1118 -0.6833
   57OL    H12R 2526   4.670   3.865   4.609 -1.6173 -0.1081 -2.1496
   57OL    H12S 2527   4.727   3.781   4.463  0.0213  0.0872 -0.8644
   57OL    C113 2528   4.840   3.965   4.516  0.7160 -0.5067 -0.4255
   57OL    H13R 2529   4.928   3.941   4.456  0.5602 -1.2704 -0.3560
   57OL    H13S 2530   4.873   4.015   4.607 -2.3563 -1.5761  1.4149
   57OL    C114 2531   4.754   4.070   4.434  0.5801  0.6709 -0.3932
   57OL    H14R 2532   4.820   4.156   4.423  1.1755  0.3299  0.3520
   57OL    H14S 2533   4.673   4.097   4.503  0.4849  0.0358 -0.2471
   57OL    C115 2534   4.703   4.034   4.296 -0.3958  0.4476  0.4511
   57OL    H15R 2535   4.669   4.130   4.257 -2.3466 -0.2138  0.4455
   57OL    H15S 2536   4.623   3.960   4.302 -0.4030  0.4292  0.1492
   57OL    C116 2537   4.812   3.983   4.198  1.1526 -0.1622 -0.0929
   57OL    H16R 2538   4.834   3.878   4.221  1.9914  0.6434  3.3067
   57OL    H16S 2539   4.909   4.028   4.220 -0.6302  3.1086  1.7689
   57OL    C117 2540   4.777   4.008   4.052  0.1677  0.8045  0.3214
   57OL    H17R 2541   4.682   3.954   4.039  0.0841  1.4253 -2.1472
   57OL    H17S 2542   4.844   3.949   3.990 -0.3066  0.4069  0.1739
   57OL    C118 2543   4.747   4.152   4.006 -0.0086  0.3387 -0.3739
   57OL    H18R 2544   4.831   4.218   4.026  0.0983 -0.3330  1.6044
   57OL    H18S 2545   4.662   4.203   4.052 -0.3635  0.9872 -1.7036
   57OL    H18T 2546   4.746   4.157   3.897  0.1225 -0.1839 -0.4024
   58PA    C116 2547   5.864   2.417   3.844 -0.3234  0.2930  0.2738
   58PA    H16R 2548   5.951   2.360   3.877 -2.0958 -1.7283  1.7233
   58PA    H16S 2549   5.817   2.371   3.757 -0.5629  0.9183  0.0678
   58PA    H16T 2550   5.796   2.417   3.930 -2.6356 -0.4931 -1.4429
   58PA    C115 2551   5.912   2.560   3.793 -0.1650 -0.1541 -0.2662
   58PA    H15R 2552   5.965   2.538   3.700 -0.2723 -0.9259 -0.1514
   58PA    H15S 2553   5.825   2.623   3.775 -0.8058 -1.2126 -0.9428
   58PA    C114 2554   6.010   2.619   3.899 -0.3108  0.1323 -0.3311
   58PA    H14R 2555   6.098   2.557   3.910 -0.5042 -0.6576 -2.7004
   58PA    H14S 2556   6.049   2.713   3.861  1.1962  0.2103  1.3151
   58PA    C113 2557   5.945   2.653   4.035 -0.2484 -0.4596 -0.4541
   58PA    H13R 2558   5.858   2.712   4.008  0.6506  1.4566  0.6025
   58PA    H13S 2559   5.927   2.556   4.083  2.1964 -1.0195 -0.5445
   58PA    C112 2560   6.035   2.727   4.138  0.6017  0.0805  0.8278
   58PA    H12R 2561   6.101   2.655   4.186 -2.4432 -1.0831  3.7302
   58PA    H12S 2562   6.101   2.801   4.091  0.3679  2.1929  3.5545
   58PA    C111 2563   5.953   2.804   4.242 -0.2935  0.6091 -1.1409
   58PA    H11R 2564   5.885   2.877   4.198 -1.4097 -0.2923 -0.9567
   58PA    H11S 2565   5.886   2.737   4.296 -0.6583 -0.7240 -3.1765
   58PA    C110 2566   6.046   2.880   4.346  0.7296  0.2877  0.1999
   58PA    H10R 2567   6.126   2.817   4.388 -0.2882  0.1988  2.1259
   58PA    H10S 2568   6.099   2.962   4.298  0.5101  0.1170 -0.3318
   58PA     C19 2569   5.973   2.935   4.476 -0.0608 -0.2522 -0.7593
   58PA     H9R 2570   5.893   3.003   4.447  0.4998  0.3730 -0.8579
   58PA     H9S 2571   5.922   2.855   4.531 -0.7922 -0.1527 -1.2702
   58PA     C18 2572   6.068   3.004   4.572  0.2941 -0.7505 -0.1427
   58PA     H8R 2573   6.163   2.951   4.570 -0.4122 -2.0840  0.5993
   58PA     H8S 2574   6.089   3.104   4.535 -1.1065 -0.1618  0.5771
   58PA     C17 2575   6.002   3.020   4.713 -0.2142 -0.2550 -0.2414
   58PA     H7R 2576   5.926   3.098   4.714 -0.7442 -0.7748  0.7017
   58PA     H7S 2577   5.961   2.925   4.746  1.0532 -0.0223  2.2400
   58PA     C16 2578   6.115   3.049   4.814 -0.6380 -0.5516 -0.4254
   58PA     H6R 2579   6.184   2.965   4.821 -1.0400 -0.7975  0.9031
   58PA     H6S 2580   6.170   3.136   4.776  1.1692 -1.2969  0.3372
   58PA     C15 2581   6.056   3.077   4.954  0.7230  0.4470 -1.2026
   58PA     H5R 2582   5.999   2.989   4.985  0.7832  0.6345 -0.5420
   58PA     H5S 2583   6.137   3.087   5.027  0.1821 -1.9155 -0.1710
   58PA     C14 2584   5.981   3.211   4.957  0.5491  0.3363 -0.3021
   58PA     H4R 2585   6.010   3.274   4.873 -0.2716 -0.8054 -1.4708
   58PA     H4S 2586   5.877   3.183   4.936  1.4669 -2.8010 -1.1861
   58PA     C13 2587   5.978   3.294   5.086 -0.5028 -0.0519 -0.4416
   58PA     H3R 2588   6.079   3.322   5.115 -0.5895 -0.2293  0.0399
   58PA     H3S 2589   5.923   3.388   5.079 -0.8164 -0.0960  1.0907
   58PA     C12 2590   5.917   3.220   5.203  0.0871 -0.1041  0.0098
   58PA     H2R 2591   5.811   3.211   5.180 -0.1911  1.5642  0.4639
   58PA     H2S 2592   5.962   3.120   5.204 -1.4858 -0.9334 -2.9496
   59PC     C11 2593   5.928   3.298   5.327 -0.1948  0.2204 -0.3161
   59PC     O12 2594   6.007   3.275   5.412 -0.1746 -0.8389 -0.6658
   59PC     O11 2595   5.828   3.389   5.339  0.9116  0.0924 -0.0682
   59PC      C1 2596   5.815   3.466   5.466 -0.5813 -0.2049  0.7955
   59PC      HR 2597   5.727   3.529   5.450 -1.0787 -1.3384 -1.3704
   59PC      HS 2598   5.802   3.406   5.557 -0.2877 -1.8343 -0.1991
   59PC      C2 2599   5.937   3.567   5.481  0.2828  0.5255  0.5755
   59PC      HX 2600   6.023   3.511   5.520  1.3570  0.8871 -1.1762
   59PC      C3 2601   5.912   3.679   5.589 -0.0107 -0.2341 -0.0688
   59PC      HA 2602   5.995   3.751   5.590 -0.4270  0.2534  0.3966
   59PC      HB 2603   5.822   3.736   5.563 -0.6652 -0.5829  1.3152
   59PC     O31 2604   5.886   3.624   5.723 -0.1960 -0.0873  0.1360
   59PC     P31 2605   6.005   3.579   5.822 -0.2971 -0.1538  0.1513
   59PC     O32 2606   6.028   3.431   5.786 -0.6544 -0.2948 -0.2710
   59PC     C31 2607   5.922   3.335   5.815  0.0363 -0.0382  0.4283
   59PC     H1A 2608   5.901   3.333   5.923 -1.0623  0.0728  0.2264
   59PC     H1B 2609   5.834   3.370   5.761  0.2505  0.5691  0.4647
   59PC     C32 2610   5.973   3.204   5.754 -0.2935  0.1069 -0.6483
   59PC     H2A 2611   6.013   3.222   5.654  0.0982 -0.9972 -0.7106
   59PC     H2B 2612   6.043   3.166   5.828 -1.4412  1.2619  1.1158
   59PC     N31 2613   5.879   3.089   5.745 -0.1165 -0.2546  0.0237
   59PC     C33 2614   5.804   3.071   5.875  0.0405 -0.1389  0.4813
   59PC     H3A 2615   5.747   3.162   5.891 -0.1468 -0.1376 -0.1594
   59PC     H3B 2616   5.737   2.985   5.873  0.1673 -0.2679 -2.3933
   59PC     H3C 2617   5.883   3.054   5.947  0.7205  0.4693 -0.1119
   59PC     C34 2618   5.770   3.108   5.649 -0.4829  0.5232  0.7388
   59PC     H4A 2619   5.809   3.134   5.550 -1.3835 -0.4215  0.1253
   59PC     H4B 2620   5.710   3.017   5.648  0.6873 -0.3202  2.5349
   59PC     H4C 2621   5.712   3.194   5.683  0.0499  0.5626  1.5909
   59PC     C35 2622   5.940   2.955   5.713 -0.2563 -0.5474 -0.0912
   59PC     H5A 2623   5.963   2.938   5.608 -0.4939  0.1700 -0.2598
   59PC     H5B 2624   5.872   2.878   5.751 -0.0227 -0.9781 -0.5408
   59PC     H5C 2625   6.035   2.946   5.765  0.0684  1.5051 -0.2536
   59PC     O33 2626   6.121   3.668   5.788  0.1309  1.0132  0.0520
   59PC     O34 2627   5.960   3.583   5.961  0.5318  0.1371  0.2475
   59PC     O21 2628   5.979   3.634   5.351  0.4672 -0.1551 -0.2620
   59PC     C21 2629   6.106   3.617   5.304 -0.8128  0.0279  0.1140
   59PC     O22 2630   6.194   3.557   5.367  0.1537 -0.8538  0.1796
   60OL     C12 2631   6.126   3.670   5.159 -0.4292  0.0632 -0.9197
   60OL     H2R 2632   6.087   3.771   5.147 -0.6751 -0.1829 -2.4606
   60OL     H2S 2633   6.064   3.609   5.093 -0.5200 -0.5632 -0.2564
   60OL     C13 2634   6.268   3.665   5.104  0.1587  0.4252 -0.1786
   60OL     H3R 2635   6.327   3.685   5.194  0.0952  1.4156 -0.3426
   60OL     H3S 2636   6.281   3.755   5.044 -1.9361  0.7030 -0.3030
   60OL     C14 2637   6.306   3.537   5.035 -0.1998 -0.2933 -0.0673
   60OL     H4R 2638   6.281   3.455   5.103 -1.5878  1.0875  1.1566
   60OL     H4S 2639   6.414   3.530   5.021  0.1839 -0.3727  2.4442
   60OL     C15 2640   6.244   3.522   4.894 -0.4699  0.1811 -0.8713
   60OL     H5R 2641   6.279   3.603   4.831 -0.0309 -0.7342 -1.8434
   60OL     H5S 2642   6.135   3.529   4.895 -0.5406 -0.5117  1.0018
   60OL     C16 2643   6.274   3.383   4.830 -0.1914  0.4644  0.7953
   60OL     H6R 2644   6.212   3.381   4.741 -1.5205 -3.1494  1.6496
   60OL     H6S 2645   6.245   3.300   4.894 -0.9859 -1.2622 -1.6901
   60OL     C17 2646   6.419   3.356   4.782  0.4329 -0.5038 -0.4895
   60OL     H7R 2647   6.491   3.360   4.864 -0.8607  2.1741  0.6203
   60OL     H7S 2648   6.439   3.440   4.715  0.3005 -0.7897 -0.8888
   60OL     C18 2649   6.451   3.228   4.711 -0.7104  0.8334  0.2558
   60OL     H8R 2650   6.365   3.186   4.659  0.1778 -0.0382 -0.5501
   60OL     H8S 2651   6.477   3.156   4.789  0.9667  1.8027  0.6504
   60OL     C19 2652   6.574   3.250   4.631  0.4969 -0.1056 -0.3505
   60OL     H9R 2653   6.643   3.325   4.670 -0.0315  0.8809 -1.2725
   60OL    C110 2654   6.595   3.193   4.514 -0.3385 -0.7626  0.2227
   60OL    H10R 2655   6.680   3.231   4.459  1.8143 -2.3709  2.1990
   60OL    C111 2656   6.499   3.092   4.443 -0.8526  0.0944  0.3456
   60OL    H11R 2657   6.506   3.114   4.336 -1.8238 -1.8622 -0.1858
   60OL    H11S 2658   6.397   3.126   4.462 -0.7295  1.6542 -1.4973
   60OL    C112 2659   6.525   2.941   4.456  0.0631 -0.3079  0.5718
   60OL    H12R 2660   6.532   2.908   4.560  1.1527 -0.1639  0.5550
   60OL    H12S 2661   6.626   2.938   4.414 -0.4860 -0.5173 -0.7877
   60OL    C113 2662   6.427   2.847   4.387  0.1493 -0.8441 -0.4698
   60OL    H13R 2663   6.327   2.885   4.408  0.5505  0.6869 -1.2342
   60OL    H13S 2664   6.449   2.745   4.421 -0.9004 -1.0530 -0.3873
   60OL    C114 2665   6.432   2.843   4.234  0.6765  0.2143  0.0057
   60OL    H14R 2666   6.426   2.949   4.206  1.4922  0.1418 -0.5057
   60OL    H14S 2667   6.340   2.794   4.202  0.8370  0.8248 -1.5120
   60OL    C115 2668   6.551   2.778   4.167  0.1141 -0.6953  0.3361
   60OL    H15R 2669   6.573   2.682   4.213 -1.4143 -0.7298  1.0463
   60OL    H15S 2670   6.647   2.827   4.189  0.9493 -2.8004  1.6682
   60OL    C116 2671   6.535   2.769   4.019 -0.8627  0.1313  0.1859
   60OL    H16R 2672   6.635   2.744   3.984  0.4116  2.3866  1.9154
   60OL    H16S 2673   6.510   2.866   3.975 -1.3113  0.1898  0.5567
   60OL    C117 2674   6.424   2.673   3.976  0.4789 -0.2014 -0.0115
   60OL    H17R 2675   6.327   2.716   3.999  1.0363  1.0143  0.1593
   60OL    H17S 2676   6.427   2.586   4.041 -0.4566  0.1866  0.5927
   60OL    C118 2677   6.435   2.637   3.826  0.5586 -0.0422 -0.4406
   60OL    H18R 2678   6.427   2.732   3.773  2.1190  0.3545 -0.0267
   60OL    H18S 2679   6.346   2.575   3.809 -0.2041  0.7459  0.5019
   60OL    H18T 2680   6.527   2.582   3.811 -0.4999 -2.3558  0.9403
   61PA    C116 2681   5.831   0.569   4.035  0.6131 -0.1887  0.2495
   61PA    H16R 2682   5.889   0.642   4.091  0.5640  1.1968 -1.4218
   61PA    H16S 2683   5.731   0.610   4.044  1.4135  1.4467  2.7370
   61PA    H16T 2684   5.854   0.555   3.929  0.8612 -2.1270  0.5240
   61PA    C115 2685   5.838   0.427   4.094 -1.1799  0.1092 -0.3985
   61PA    H15R 2686   5.929   0.371   4.072 -2.2639 -2.4014  1.1032
   61PA    H15S 2687   5.850   0.450   4.200  1.1109 -0.7073 -0.4339
   61PA    C114 2688   5.713   0.342   4.070  0.1079 -0.5541  0.4540
   61PA    H14R 2689   5.629   0.400   4.108  0.6981  0.9831 -0.5271
   61PA    H14S 2690   5.705   0.315   3.965  0.1101 -3.0137  1.0119
   61PA    C113 2691   5.720   0.209   4.144  0.2224  0.1601 -0.4429
   61PA    H13R 2692   5.637   0.152   4.100  1.5322 -1.5239 -0.8446
   61PA    H13S 2693   5.810   0.153   4.118  0.0253 -0.0971 -0.5780
   61PA    C112 2694   5.706   0.217   4.300  0.6508  0.0157  0.2117
   61PA    H12R 2695   5.773   0.286   4.352 -0.4639 -0.5737  2.6119
   61PA    H12S 2696   5.604   0.256   4.311 -0.2684 -2.2946  0.3382
   61PA    C111 2697   5.719   0.077   4.344  0.3022 -0.1330  0.2656
   61PA    H11R 2698   5.668   0.010   4.275  1.4018  0.2305 -0.9475
   61PA    H11S 2699   5.825   0.048   4.346  0.5846  0.8847  0.5130
   61PA    C110 2700   5.659   0.064   4.486 -0.0447 -0.2728  0.7753
   61PA    H10R 2701   5.552   0.080   4.473  0.2197  0.6521 -0.5337
   61PA    H10S 2702   5.674  -0.042   4.507  0.8343 -0.3800 -0.3040
   61PA     C19 2703   5.733   0.138   4.596  0.3294 -0.0602  0.1737
   61PA     H9R 2704   5.835   0.101   4.601 -0.6126 -2.8335  0.8908
   61PA     H9S 2705   5.751   0.243   4.572  3.8219 -0.7740 -0.9200
   61PA     C18 2706   5.660   0.131   4.739 -0.4205 -0.4287 -0.1672
   61PA     H8R 2707   5.699   0.209   4.804  1.7882  1.7872 -3.8227
   61PA     H8S 2708   5.558   0.161   4.715 -0.3386 -0.4611 -0.5674
   61PA     C17 2709   5.668  -0.004   4.799 -0.3248 -0.5950  0.1265
   61PA     H7R 2710   5.608  -0.076   4.742 -2.0201 -1.2005  2.5046
   61PA     H7S 2711   5.769  -0.044   4.807  0.0919  0.4808  0.3417
   61PA     C16 2712   5.603   0.001   4.937  0.1336 -0.0067  0.0188
   61PA     H6R 2713   5.645   0.079   5.001  2.2090  0.0894 -1.3666
   61PA     H6S 2714   5.500   0.029   4.916  1.1131  1.3822 -3.8523
   61PA     C15 2715   5.613  -0.130   5.008 -0.6027  0.1916  0.6324
   61PA     H5R 2716   5.558  -0.132   5.103 -0.5909 -1.6818  0.6297
   61PA     H5S 2717   5.578  -0.206   4.937 -1.2625  0.5928  0.5152
   61PA     C14 2718   5.753  -0.180   5.046  0.1106  0.4334  0.5906
   61PA     H4R 2719   5.816  -0.204   4.960  0.2256 -2.1253  1.3127
   61PA     H4S 2720   5.794  -0.090   5.093  0.4989 -0.4701  2.0328
   61PA     C13 2721   5.745  -0.296   5.149  0.2240  0.1406 -0.5080
   61PA     H3R 2722   5.659  -0.359   5.127 -1.4198  2.2067 -0.3362
   61PA     H3S 2723   5.838  -0.352   5.135  0.7422  0.7750  0.2741
   61PA     C12 2724   5.732  -0.244   5.288 -0.4211  1.0974  0.3047
   61PA     H2R 2725   5.813  -0.174   5.309  1.3265 -0.1783 -1.7385
   61PA     H2S 2726   5.636  -0.200   5.316 -1.7793 -1.6673  0.3586
   62PC     C11 2727   5.736  -0.355   5.388  0.0131  0.1855 -0.8063
   62PC     O12 2728   5.833  -0.429   5.402 -0.1069  0.2220  0.9652
   62PC     O11 2729   5.623  -0.374   5.455  0.3248 -0.8224 -0.4520
   62PC      C1 2730   5.613  -0.487   5.546 -0.0895  0.0479 -0.4215
   62PC      HR 2731   5.661  -0.574   5.501 -0.1596 -0.3322  0.2286
   62PC      HS 2732   5.670  -0.460   5.635 -0.6363  0.1182 -0.0909
   62PC      C2 2733   5.465  -0.523   5.572 -0.5171 -0.0858 -0.4186
   62PC      HX 2734   5.408  -0.435   5.603 -0.5822  0.2448 -1.4644
   62PC      C3 2735   5.440  -0.649   5.664 -0.6606 -0.1677  0.0208
   62PC      HA 2736   5.333  -0.670   5.662 -0.6619 -0.6090 -4.5212
   62PC      HB 2737   5.480  -0.736   5.612 -5.0654 -0.0632 -4.2533
   62PC     O31 2738   5.497  -0.626   5.794  0.0682 -0.4390 -0.8229
   62PC     P31 2739   5.404  -0.588   5.918 -0.3420  0.5005 -0.2452
   62PC     O32 2740   5.327  -0.726   5.954 -0.1219 -0.4438 -0.6269
   62PC     C31 2741   5.414  -0.843   5.962 -0.0289  0.6009  0.6808
   62PC     H1A 2742   5.417  -0.902   5.870  4.4908  1.9052 -0.2904
   62PC     H1B 2743   5.517  -0.806   5.975  1.0056 -2.1612  0.8989
   62PC     C32 2744   5.362  -0.919   6.079 -0.6398  0.6710 -0.0242
   62PC     H2A 2745   5.361  -0.849   6.163  0.9446  0.4948  0.1807
   62PC     H2B 2746   5.262  -0.959   6.068 -1.3957  2.4908 -0.1160
   62PC     N31 2747   5.447  -1.035   6.133  0.0873 -0.1387 -0.1862
   62PC     C33 2748   5.361  -1.108   6.227  0.0915 -0.0995  0.3809
   62PC     H3A 2749   5.415  -1.185   6.282  0.8375  1.4102  1.8594
   62PC     H3B 2750   5.304  -1.040   6.291  0.4127  0.5110  0.0319
   62PC     H3C 2751   5.294  -1.159   6.158  0.0567  0.1110  0.2570
   62PC     C34 2752   5.491  -1.132   6.027  0.5875 -0.7528  0.3643
   62PC     H4A 2753   5.404  -1.158   5.966  0.5088 -1.8713  0.9275
   62PC     H4B 2754   5.576  -1.093   5.971 -0.1281  3.2702  1.7016
   62PC     H4C 2755   5.521  -1.214   6.092 -0.1884 -1.7537 -0.5232
   62PC     C35 2756   5.568  -0.979   6.206 -0.2967  0.1241 -0.0276
   62PC     H5A 2757   5.536  -0.917   6.290 -2.3711  0.3069 -0.9183
   62PC     H5B 2758   5.634  -0.935   6.131  2.4001 -0.4861  1.8066
   62PC     H5C 2759   5.619  -1.067   6.247 -1.9638 -0.8168  0.1049
   62PC     O33 2760   5.488  -0.556   6.041  0.8902 -0.1188 -0.4437
   62PC     O34 2761   5.307  -0.487   5.879  0.3361  0.5549  0.3289
   62PC     O21 2762   5.413  -0.552   5.445  0.2514 -1.7261  0.1740
   62PC     C21 2763   5.288  -0.525   5.420  0.0359  0.4196  0.3081
   62PC     O22 2764   5.200  -0.491   5.499 -0.1174 -0.4533  0.7456
   63OL     C12 2765   5.258  -0.527   5.276 -0.1922  0.6416  0.6406
   63OL     H2R 2766   5.343  -0.485   5.222 -0.9824 -1.9553 -2.9808
   63OL     H2S 2767   5.165  -0.476   5.253  0.7885  1.8325 -0.8722
   63OL     C13 2768   5.249  -0.667   5.224 -0.0318  0.1468  0.2503
   63OL     H3R 2769   5.189  -0.734   5.287 -0.0561  0.6109  0.7293
   63OL     H3S 2770   5.352  -0.702   5.232  0.4732  1.9117  2.6953
   63OL     C14 2771   5.198  -0.685   5.073 -0.2241 -0.3166 -1.1228
   63OL     H4R 2772   5.092  -0.663   5.059 -0.1793  1.0414  0.3169
   63OL     H4S 2773   5.212  -0.791   5.050 -0.3898 -0.2200 -1.6780
   63OL     C15 2774   5.282  -0.598   4.981  0.3789 -0.5969 -0.3237
   63OL     H5R 2775   5.374  -0.655   4.969  1.3941  0.8801  0.1209
   63OL     H5S 2776   5.311  -0.505   5.032 -1.1119 -0.2959  0.0134
   63OL     C16 2777   5.213  -0.566   4.843 -0.3214 -0.1447  0.0206
   63OL     H6R 2778   5.264  -0.493   4.780 -1.4429  0.8517  0.2303
   63OL     H6S 2779   5.113  -0.531   4.869 -0.1525 -0.6479  1.4704
   63OL     C17 2780   5.174  -0.691   4.765  0.0263  0.2414 -0.5008
   63OL     H7R 2781   5.095  -0.659   4.697 -2.0401  1.0730  2.1340
   63OL     H7S 2782   5.113  -0.751   4.834 -0.2125 -0.0322 -0.9475
   63OL     C18 2783   5.287  -0.766   4.698 -0.2423  0.1294 -0.3396
   63OL     H8R 2784   5.246  -0.862   4.665  0.9892  0.1464 -2.0257
   63OL     H8S 2785   5.365  -0.785   4.771  1.3792  0.3363 -1.9522
   63OL     C19 2786   5.367  -0.689   4.599 -0.3350 -0.3084  0.3611
   63OL     H9R 2787   5.453  -0.632   4.634 -1.1500  0.7982  0.5961
   63OL    C110 2788   5.342  -0.690   4.469  0.2438 -0.4126  0.5429
   63OL    H10R 2789   5.410  -0.635   4.404 -1.1348  1.2339  0.4098
   63OL    C111 2790   5.228  -0.768   4.401 -0.8386 -0.1668 -0.0039
   63OL    H11R 2791   5.189  -0.847   4.466  1.3401 -2.2537 -1.0564
   63OL    H11S 2792   5.267  -0.826   4.317  1.9727  1.5738 -0.0344
   63OL    C112 2793   5.119  -0.666   4.369  0.2265 -0.3225  0.5166
   63OL    H12R 2794   5.151  -0.586   4.302 -2.9096  0.8696  0.2686
   63OL    H12S 2795   5.078  -0.626   4.462  2.5282  0.3892  1.2739
   63OL    C113 2796   5.000  -0.734   4.297  0.3625 -0.4641  0.0576
   63OL    H13R 2797   4.919  -0.661   4.304 -0.0048 -0.8838  0.1873
   63OL    H13S 2798   4.971  -0.817   4.362  2.6825 -1.1734  0.3051
   63OL    C114 2799   5.038  -0.765   4.151 -0.7000 -0.3501  0.6415
   63OL    H14R 2800   5.132  -0.820   4.146  1.4836  3.1433 -0.1585
   63OL    H14S 2801   5.064  -0.671   4.102 -0.4237 -1.1637 -0.8454
   63OL    C115 2802   4.921  -0.827   4.067 -0.5518  0.1620  0.6305
   63OL    H15R 2803   4.948  -0.826   3.962  1.2536  0.0424  1.0461
   63OL    H15S 2804   4.832  -0.766   4.078 -2.2610 -1.9080 -0.8989
   63OL    C116 2805   4.894  -0.975   4.103 -0.3756  1.3020  0.7295
   63OL    H16R 2806   4.869  -0.980   4.210 -0.5654 -0.1268  0.6370
   63OL    H16S 2807   4.980  -1.041   4.093 -1.7677 -0.2631 -1.8908
   63OL    C117 2808   4.782  -1.033   4.019 -0.1102 -0.3198  0.3526
   63OL    H17R 2809   4.807  -1.043   3.914 -0.8196  0.6258  0.0812
   63OL    H17S 2810   4.698  -0.963   4.010  0.2284  0.0552  0.0931
   63OL    C118 2811   4.736  -1.165   4.073 -0.7454 -0.3250 -0.3070
   63OL    H18R 2812   4.674  -1.212   3.997 -3.2248 -1.3166  2.1399
   63OL    H18S 2813   4.687  -1.136   4.167 -0.2784  2.2125 -0.7660
   63OL    H18T 2814   4.820  -1.234   4.088 -2.2163 -2.0705  0.2668
   64PA    C116 2815   7.679   3.549   4.188 -0.6720 -0.2599 -0.6369
   64PA    H16R 2816   7.648   3.449   4.158  0.3625 -0.3323 -1.5509
   64PA    H16S 2817   7.777   3.532   4.234 -0.7239  0.0179 -0.4178
   64PA    H16T 2818   7.680   3.614   4.100 -1.8024  1.2683  0.4321
   64PA    C115 2819   7.586   3.609   4.300 -0.3970  0.3380  0.1172
   64PA    H15R 2820   7.614   3.714   4.309  0.9056 -0.0144  0.4496
   64PA    H15S 2821   7.486   3.613   4.257 -0.0428  0.6588 -0.7029
   64PA    C114 2822   7.584   3.525   4.426 -0.2774 -0.2916 -1.0132
   64PA    H14R 2823   7.602   3.420   4.401  1.7701 -0.5312  1.0817
   64PA    H14S 2824   7.662   3.568   4.489 -0.6897  1.2038 -1.5034
   64PA    C113 2825   7.443   3.533   4.499  0.5857  0.6198  0.0035
   64PA    H13R 2826   7.434   3.638   4.530  2.0729  0.9777 -0.7102
   64PA    H13S 2827   7.359   3.496   4.440  1.5055 -2.9506  0.6914
   64PA    C112 2828   7.435   3.448   4.624  0.9362  0.0727 -0.1520
   64PA    H12R 2829   7.503   3.501   4.691  0.8440 -0.8885  0.7316
   64PA    H12S 2830   7.338   3.451   4.673  0.1705  0.4286 -1.6408
   64PA    C111 2831   7.479   3.303   4.625 -0.7566  0.3880  0.3732
   64PA    H11R 2832   7.408   3.254   4.558 -2.9143 -0.1161  2.8905
   64PA    H11S 2833   7.578   3.289   4.581 -0.6867  0.9502  0.3448
   64PA    C110 2834   7.459   3.226   4.756 -0.1164  0.3008 -0.6157
   64PA    H10R 2835   7.522   3.137   4.759 -0.8905 -0.2494  1.3680
   64PA    H10S 2836   7.489   3.285   4.843  0.1879 -0.7612  0.0176
   64PA     C19 2837   7.312   3.181   4.782 -0.2019 -0.3452  0.3915
   64PA     H9R 2838   7.273   3.251   4.857 -1.4996  2.0276 -2.3228
   64PA     H9S 2839   7.255   3.187   4.690  2.2288  0.7124 -1.1462
   64PA     C18 2840   7.308   3.035   4.835 -0.1368  0.1358  0.0912
   64PA     H8R 2841   7.202   3.010   4.844  0.2288 -1.3487  0.6901
   64PA     H8S 2842   7.354   2.977   4.754  0.8514  0.7287  0.2120
   64PA     C17 2843   7.391   3.012   4.961  0.3010 -0.0355 -0.3511
   64PA     H7R 2844   7.494   3.007   4.924  0.0830 -0.3695 -0.9297
   64PA     H7S 2845   7.388   3.093   5.034 -0.1638 -0.2484 -0.1322
   64PA     C16 2846   7.351   2.879   5.026  0.0818  0.0818  0.0441
   64PA     H6R 2847   7.244   2.891   5.049  0.0261 -2.6886  1.5894
   64PA     H6S 2848   7.355   2.794   4.958 -2.0458 -1.1018  1.3056
   64PA     C15 2849   7.433   2.849   5.152  0.7332  0.2333 -0.3150
   64PA     H5R 2850   7.539   2.841   5.128  0.9502  0.2213  0.5938
   64PA     H5S 2851   7.428   2.937   5.217 -1.1502  0.7491 -1.1034
   64PA     C14 2852   7.393   2.712   5.212  0.1028 -0.5746  0.3690
   64PA     H4R 2853   7.286   2.727   5.225  0.2130 -0.2515  0.9296
   64PA     H4S 2854   7.414   2.637   5.134 -0.8269 -0.2401 -0.2220
   64PA     C13 2855   7.475   2.683   5.339 -0.1892  0.1998 -0.1684
   64PA     H3R 2856   7.577   2.720   5.331 -0.5566  1.1755 -0.5892
   64PA     H3S 2857   7.437   2.738   5.425  1.3440  0.9731  0.0493
   64PA     C12 2858   7.472   2.525   5.366 -0.1909  0.0263  0.5186
   64PA     H2R 2859   7.372   2.479   5.364 -0.1457 -0.1045  1.1252
   64PA     H2S 2860   7.526   2.480   5.282  2.3959 -1.4350  2.8357
   65PC     C11 2861   7.537   2.473   5.493 -0.4460  0.3890 -0.9058
   65PC     O12 2862   7.534   2.531   5.603 -0.2825  0.3725  0.2095
   65PC     O11 2863   7.608   2.354   5.467  0.0137 -0.1973 -0.2114
   65PC      C1 2864   7.648   2.270   5.580  0.1415 -0.5939  0.1299
   65PC      HR 2865   7.728   2.202   5.549  1.6989  0.6188  1.2987
   65PC      HS 2866   7.675   2.333   5.665  1.6177  0.4123 -1.0030
   65PC      C2 2867   7.523   2.194   5.623  1.0582  0.3948  0.0881
   65PC      HX 2868   7.433   2.254   5.632 -0.3513 -1.1947 -2.2519
   65PC      C3 2869   7.546   2.107   5.743  0.1542  1.2101  0.2432
   65PC      HA 2870   7.461   2.039   5.756  1.0044  0.4228  1.9863
   65PC      HB 2871   7.636   2.047   5.724 -0.3940 -1.0826  3.9316
   65PC     O31 2872   7.573   2.183   5.857  0.6481  0.2562  0.2498
   65PC     P31 2873   7.550   2.127   6.002 -0.1937  0.1016 -0.1273
   65PC     O32 2874   7.389   2.130   6.007 -0.0467  0.0463  0.5882
   65PC     C31 2875   7.321   2.255   5.992  0.0673 -0.7989 -0.5644
   65PC     H1A 2876   7.358   2.327   6.065 -1.2064  0.8854 -1.5132
   65PC     H1B 2877   7.337   2.306   5.896  0.2239 -0.2771 -0.2641
   65PC     C32 2878   7.174   2.209   6.020  0.7626  0.0633  0.4900
   65PC     H2A 2879   7.139   2.136   5.946 -0.5081  1.3308 -0.1910
   65PC     H2B 2880   7.171   2.164   6.119 -1.9420  0.1673  0.5360
   65PC     N31 2881   7.068   2.313   6.025  0.1823  0.2007 -0.0712
   65PC     C33 2882   7.099   2.420   6.122 -1.1314 -0.3844 -0.1116
   65PC     H3A 2883   7.188   2.475   6.090 -1.9930  1.0770 -0.0386
   65PC     H3B 2884   7.023   2.496   6.136 -0.0385  0.7264 -0.0509
   65PC     H3C 2885   7.110   2.384   6.224 -0.9651  0.3062  0.1196
   65PC     C34 2886   7.043   2.379   5.894  0.1981  0.5486  0.4007
   65PC     H4A 2887   6.974   2.462   5.905 -0.6009  0.2649 -1.8464
   65PC     H4B 2888   7.137   2.412   5.849  0.7402 -1.6710 -0.2440
   65PC     H4C 2889   7.000   2.307   5.823 -1.9217  0.6710  1.4817
   65PC     C35 2890   6.940   2.246   6.049  0.2448  0.0284 -0.5517
   65PC     H5A 2891   6.927   2.169   5.973  1.4185 -0.1185 -0.6330
   65PC     H5B 2892   6.872   2.331   6.039  2.6738  2.0519 -0.9314
   65PC     H5C 2893   6.918   2.215   6.151  0.5311 -2.2638 -1.1273
   65PC     O33 2894   7.584   1.984   6.016 -0.1914 -0.2491  0.0409
   65PC     O34 2895   7.598   2.227   6.104  0.9839  0.5652  0.1937
   65PC     O21 2896   7.505   2.100   5.515  0.0038 -0.4966  0.4888
   65PC     C21 2897   7.399   2.127   5.431 -0.1933 -0.2560 -0.2122
   65PC     O22 2898   7.323   2.221   5.431  0.4278 -0.0626 -0.3492
   66OL     C12 2899   7.392   2.011   5.325  0.4784  0.0302 -0.2175
   66OL     H2R 2900   7.289   2.012   5.289  0.2536  2.7726  0.2677
   66OL     H2S 2901   7.417   1.917   5.375  2.9323  0.1547 -1.1010
   66OL     C13 2902   7.503   2.024   5.219  0.0476  0.6717  0.5321
   66OL     H3R 2903   7.502   1.935   5.156 -1.0471 -0.7122  2.3728
   66OL     H3S 2904   7.601   2.016   5.267  0.1559 -1.3194  0.0831
   66OL     C14 2905   7.493   2.149   5.130 -0.1646 -0.2294 -0.3703
   66OL     H4R 2906   7.565   2.143   5.048 -0.1613  0.4015 -0.4232
   66OL     H4S 2907   7.505   2.244   5.183  2.1680  0.5858 -2.1837
   66OL     C15 2908   7.358   2.164   5.062 -0.2218  0.2564  0.2402
   66OL     H5R 2909   7.287   2.183   5.142  1.6475  0.4275  1.9399
   66OL     H5S 2910   7.312   2.075   5.017 -1.5200  1.3332 -0.6415
   66OL     C16 2911   7.337   2.283   4.963 -0.2147  0.5068 -0.5912
   66OL     H6R 2912   7.345   2.376   5.021  2.2000  0.2562 -0.4136
   66OL     H6S 2913   7.235   2.280   4.924  0.0678 -0.3827 -1.2833
   66OL     C17 2914   7.446   2.295   4.855  0.4800  0.4389  0.4841
   66OL     H7R 2915   7.542   2.311   4.903  1.7325 -0.5893 -1.5338
   66OL     H7S 2916   7.434   2.379   4.786  1.6254  2.5301  2.7163
   66OL     C18 2917   7.447   2.166   4.768  0.6262 -0.5879  0.0461
   66OL     H8R 2918   7.500   2.091   4.827  0.0671 -0.4205  0.7759
   66OL     H8S 2919   7.511   2.197   4.685 -1.1533  1.7646 -0.5735
   66OL     C19 2920   7.305   2.115   4.730 -0.3340 -0.5378 -0.0167
   66OL     H9R 2921   7.228   2.106   4.806 -0.1430  0.6898  0.3577
   66OL    C110 2922   7.268   2.085   4.607 -0.3992  0.5507 -0.3587
   66OL    H10R 2923   7.174   2.043   4.573  0.6892 -0.5865 -2.1270
   66OL    C111 2924   7.369   2.100   4.497 -0.2118  1.0322 -0.1527
   66OL    H11R 2925   7.474   2.083   4.521 -0.0157  1.2717 -0.8088
   66OL    H11S 2926   7.356   2.205   4.470 -1.0610  1.3147  1.3131
   66OL    C112 2927   7.340   2.009   4.374  0.1536 -0.1874 -0.5604
   66OL    H12R 2928   7.234   2.012   4.348  0.2252  1.1948 -0.7586
   66OL    H12S 2929   7.371   1.908   4.401 -2.3447 -0.4978  1.5257
   66OL    C113 2930   7.417   2.056   4.244  0.0586 -0.1384  0.1523
   66OL    H13R 2931   7.523   2.059   4.268  0.1989 -1.5245 -0.2103
   66OL    H13S 2932   7.382   2.156   4.217 -1.4174 -0.3703  1.0327
   66OL    C114 2933   7.399   1.948   4.129 -0.3387 -0.3183  0.1676
   66OL    H14R 2934   7.297   1.956   4.092 -0.1205 -3.1378 -1.3322
   66OL    H14S 2935   7.402   1.851   4.180  0.6230 -0.6884 -0.5521
   66OL    C115 2936   7.502   1.955   4.019 -0.3612 -0.4752 -0.2617
   66OL    H15R 2937   7.599   1.918   4.053  0.5019 -0.5422 -2.6257
   66OL    H15S 2938   7.508   2.060   3.990 -0.2782 -0.3644  0.1354
   66OL    C116 2939   7.456   1.872   3.892 -0.1224 -0.4042 -0.1735
   66OL    H16R 2940   7.369   1.927   3.856 -2.5670 -1.9749  2.8236
   66OL    H16S 2941   7.422   1.770   3.912 -1.9360  0.2018  0.0148
   66OL    C117 2942   7.573   1.876   3.795 -0.1197 -0.1208  0.3906
   66OL    H17R 2943   7.649   1.813   3.841 -0.7172  0.3231  2.0985
   66OL    H17S 2944   7.611   1.978   3.786 -1.4331  0.2199 -2.0155
   66OL    C118 2945   7.542   1.823   3.650  0.7776  0.1877  0.6093
   66OL    H18R 2946   7.469   1.885   3.598  2.3974 -0.8088 -3.1975
   66OL    H18S 2947   7.501   1.723   3.659 -1.5686  1.1072  0.6902
   66OL    H18T 2948   7.634   1.824   3.590  1.3319 -1.2260  1.3858
   67PA    C116 2949   6.338   0.867   3.695 -0.5863  0.4734  0.3697
   67PA    H16R 2950   6.318   0.940   3.617 -2.0025  0.2417  0.4813
   67PA    H16S 2951   6.370   0.776   3.643 -1.2425  0.2393  0.3641
   67PA    H16T 2952   6.412   0.902   3.767 -1.3273  0.4479  1.1634
   67PA    C115 2953   6.217   0.852   3.786 -0.1868  0.1498 -0.3630
   67PA    H15R 2954   6.126   0.819   3.736 -1.1292  0.5575  1.0186
   67PA    H15S 2955   6.258   0.793   3.868 -0.0378  1.5468  0.6010
   67PA    C114 2956   6.176   0.982   3.852 -0.2449 -0.3062 -0.0184
   67PA    H14R 2957   6.262   1.023   3.906 -0.1902 -1.4963  0.8260
   67PA    H14S 2958   6.156   1.060   3.778  0.9743  0.6535  0.6180
   67PA    C113 2959   6.069   0.977   3.955 -0.1155  0.0367 -0.8981
   67PA    H13R 2960   6.045   1.071   4.007 -2.7307 -0.2544 -1.4182
   67PA    H13S 2961   5.977   0.943   3.908  0.3151 -0.6998 -1.2191
   67PA    C112 2962   6.114   0.883   4.070 -0.0934  0.5544  0.0858
   67PA    H12R 2963   6.123   0.781   4.032 -1.9597  0.6935 -0.8574
   67PA    H12S 2964   6.210   0.917   4.108 -0.7631  2.9768 -0.2363
   67PA    C111 2965   6.022   0.901   4.191 -0.3203  0.9829  0.2761
   67PA    H11R 2966   6.044   1.004   4.220  1.1305  0.6511  0.4186
   67PA    H11S 2967   5.918   0.895   4.157 -0.6606  1.6843  1.1720
   67PA    C110 2968   6.050   0.789   4.299  0.0243  0.4053  0.2394
   67PA    H10R 2969   6.025   0.689   4.263  0.4546  0.3789 -0.0027
   67PA    H10S 2970   6.159   0.783   4.311 -0.1903  1.2570  3.2145
   67PA     C19 2971   5.981   0.815   4.431  0.4007 -0.1167 -0.0910
   67PA     H9R 2972   6.017   0.750   4.512 -0.3020 -0.8800 -0.3826
   67PA     H9S 2973   5.992   0.920   4.458 -1.6954  0.2686 -0.5682
   67PA     C18 2974   5.828   0.788   4.420 -0.0003 -0.3006  0.0994
   67PA     H8R 2975   5.796   0.853   4.338  0.4374 -0.9778 -0.6124
   67PA     H8S 2976   5.819   0.682   4.396  0.2736 -0.3122  0.0526
   67PA     C17 2977   5.750   0.820   4.553 -0.1239  1.1022 -0.3935
   67PA     H7R 2978   5.760   0.925   4.579 -2.9437  1.4904 -0.5022
   67PA     H7S 2979   5.647   0.829   4.518 -0.3911  2.3360  0.6392
   67PA     C16 2980   5.759   0.709   4.659  0.2520 -0.1025 -0.5717
   67PA     H6R 2981   5.700   0.627   4.618 -0.8987  0.8518 -0.8918
   67PA     H6S 2982   5.865   0.685   4.668  0.6917  1.4396 -1.3232
   67PA     C15 2983   5.707   0.763   4.790 -0.3955  0.1590 -0.2604
   67PA     H5R 2984   5.745   0.864   4.808 -1.0829  0.3825 -0.0452
   67PA     H5S 2985   5.600   0.770   4.773 -0.4458  0.2984  0.1086
   67PA     C14 2986   5.720   0.664   4.918  0.6210  0.2956  0.8706
   67PA     H4R 2987   5.722   0.559   4.886 -1.4041  0.7718 -1.0296
   67PA     H4S 2988   5.819   0.680   4.961  0.3597  0.5495  1.3789
   67PA     C13 2989   5.606   0.694   5.022 -0.1338 -0.3485  0.1002
   67PA     H3R 2990   5.512   0.686   4.968 -0.7403 -1.7529  1.3001
   67PA     H3S 2991   5.599   0.625   5.106  0.5449 -2.3198 -1.3895
   67PA     C12 2992   5.607   0.839   5.075 -0.2802 -0.1999  0.0164
   67PA     H2R 2993   5.608   0.911   4.993 -1.9343 -0.0244  0.1237
   67PA     H2S 2994   5.509   0.847   5.122 -0.4847 -1.2065 -0.2047
   68PC     C11 2995   5.721   0.864   5.174 -0.3463 -0.4090 -0.4893
   68PC     O12 2996   5.795   0.782   5.228 -0.2674  0.2157 -0.0544
   68PC     O11 2997   5.720   0.995   5.202 -0.7682  0.0012 -0.3130
   68PC      C1 2998   5.815   1.043   5.308  0.1183  0.2452 -0.5535
   68PC      HR 2999   5.783   1.142   5.341 -0.0047  0.5819 -1.6508
   68PC      HS 3000   5.810   0.978   5.396  1.1439 -0.0641 -0.7102
   68PC      C2 3001   5.961   1.065   5.258  0.6647  0.4761 -0.4131
   68PC      HX 3002   6.011   0.967   5.261  0.0567  0.1846  1.0955
   68PC      C3 3003   6.041   1.166   5.347  0.8223 -0.0059  0.4954
   68PC      HA 3004   6.138   1.184   5.301 -1.1093 -0.6214 -4.4510
   68PC      HB 3005   5.986   1.260   5.353  0.0085 -0.3237 -1.4219
   68PC     O31 3006   6.058   1.113   5.478 -0.1215  0.2848 -0.0561
   68PC     P31 3007   6.073   1.213   5.601  0.1183 -0.1614  0.1970
   68PC     O32 3008   6.203   1.299   5.563  0.4893  0.2210 -0.1551
   68PC     C31 3009   6.334   1.253   5.585 -0.4189 -0.1873  0.0152
   68PC     H1A 3010   6.351   1.147   5.567 -0.9865 -0.0530 -1.5393
   68PC     H1B 3011   6.383   1.305   5.502 -1.6547 -1.1240 -1.3543
   68PC     C32 3012   6.375   1.294   5.724  0.0713 -0.3645  0.1026
   68PC     H2A 3013   6.304   1.257   5.798  1.3504  1.1103  2.1755
   68PC     H2B 3014   6.474   1.256   5.748  0.3459  1.0495  1.3845
   68PC     N31 3015   6.395   1.437   5.764 -0.2549 -1.1675  0.1488
   68PC     C33 3016   6.264   1.509   5.772  0.7816 -0.1627 -0.3522
   68PC     H3A 3017   6.197   1.438   5.821  1.0401  0.4012  0.8599
   68PC     H3B 3018   6.272   1.593   5.842 -3.2040  0.8237 -0.8311
   68PC     H3C 3019   6.225   1.536   5.673 -0.2331  1.1994  0.3800
   68PC     C34 3020   6.460   1.440   5.897  0.0275 -0.3562 -0.5280
   68PC     H4A 3021   6.393   1.428   5.983  0.1585  0.5307 -0.2939
   68PC     H4B 3022   6.546   1.373   5.891  0.9943  0.9381 -1.7207
   68PC     H4C 3023   6.502   1.540   5.904 -1.2651  0.1649  0.2338
   68PC     C35 3024   6.483   1.507   5.672  0.0821  0.0388  0.4293
   68PC     H5A 3025   6.477   1.612   5.703  0.9994 -0.0191  0.8273
   68PC     H5B 3026   6.453   1.497   5.567  2.0796  0.2643 -0.1950
   68PC     H5C 3027   6.578   1.458   5.691 -1.1644 -2.1411  1.3876
   68PC     O33 3028   5.954   1.299   5.596 -0.2857  0.3897  0.0524
   68PC     O34 3029   6.094   1.138   5.727 -1.0781 -0.0025  0.9020
   68PC     O21 3030   5.963   1.132   5.130 -0.2986  0.2839 -0.1039
   68PC     C21 3031   5.946   1.060   5.017  0.4709 -0.0520 -0.2728
   68PC     O22 3032   5.964   0.938   5.006  0.1234  0.4235  0.3105
   69OL     C12 3033   5.925   1.150   4.897 -0.1333  0.0473 -0.2045
   69OL     H2R 3034   5.977   1.115   4.808  0.7294 -0.7987  0.6095
   69OL     H2S 3035   5.963   1.251   4.917 -0.2185  0.0455 -0.0332
   69OL     C13 3036   5.774   1.166   4.862  0.1301 -0.7384  1.0328
   69OL     H3R 3037   5.724   1.215   4.946  1.9640  0.7052  1.3552
   69OL     H3S 3038   5.718   1.073   4.849  0.2711 -0.8162  0.9809
   69OL     C14 3039   5.750   1.258   4.736  0.5807 -0.5201 -0.7625
   69OL     H4R 3040   5.785   1.360   4.756 -2.2443  0.4298 -0.1613
   69OL     H4S 3041   5.642   1.273   4.737  0.6811  0.6858  1.8990
   69OL     C15 3042   5.806   1.219   4.600  0.4422  0.8082  0.6944
   69OL     H5R 3043   5.770   1.123   4.561 -0.8785  1.3018  0.6479
   69OL     H5S 3044   5.913   1.206   4.614  0.2143 -1.1538  0.9258
   69OL     C16 3045   5.772   1.320   4.487 -0.1614  0.3710 -0.3683
   69OL     H6R 3046   5.803   1.420   4.519  1.1489  0.1104 -0.7486
   69OL     H6S 3047   5.664   1.324   4.470 -0.4456 -2.6983  0.1472
   69OL     C17 3048   5.846   1.270   4.358 -0.5118  0.5445  0.2040
   69OL     H7R 3049   5.816   1.337   4.276  0.4770  2.7176  1.5353
   69OL     H7S 3050   5.813   1.168   4.338  1.4325 -0.1184  0.2204
   69OL     C18 3051   6.002   1.274   4.364  0.4694  0.0694  0.0205
   69OL     H8R 3052   6.045   1.250   4.266 -0.4422 -0.0008 -0.3730
   69OL     H8S 3053   6.030   1.194   4.433 -1.4063  0.5819  1.4325
   69OL     C19 3054   6.062   1.400   4.423  0.2848 -0.0288  0.1171
   69OL     H9R 3055   6.047   1.405   4.530  1.6477  0.3404  0.3164
   69OL    C110 3056   6.125   1.506   4.367 -0.2987  0.5551  0.9715
   69OL    H10R 3057   6.154   1.590   4.429 -0.8811  2.1347 -0.7981
   69OL    C111 3058   6.155   1.518   4.218  0.3911  0.7590 -0.1727
   69OL    H11R 3059   6.096   1.447   4.160  1.4625 -0.8020  0.6025
   69OL    H11S 3060   6.260   1.489   4.207  0.7117  1.2921  1.2154
   69OL    C112 3061   6.129   1.661   4.165 -0.2917 -0.9284 -0.7478
   69OL    H12R 3062   6.185   1.725   4.233  1.3579  0.5402 -3.3740
   69OL    H12S 3063   6.027   1.698   4.173  0.0068 -0.3569  0.8407
   69OL    C113 3064   6.185   1.709   4.031 -0.1035 -0.1317 -0.3301
   69OL    H13R 3065   6.294   1.709   4.032 -0.0604  0.5802 -2.1956
   69OL    H13S 3066   6.151   1.809   4.006 -0.4902  0.4282  2.1468
   69OL    C114 3067   6.140   1.611   3.918 -0.7451 -0.2247 -0.1423
   69OL    H14R 3068   6.199   1.518   3.923  4.7332  2.7659 -0.9957
   69OL    H14S 3069   6.158   1.652   3.819 -1.4280  0.8864  0.1855
   69OL    C115 3070   5.987   1.588   3.921  0.0307  0.0286  0.0778
   69OL    H15R 3071   5.940   1.685   3.938  0.7790  0.4252 -0.0631
   69OL    H15S 3072   5.968   1.526   4.009  1.0646 -0.1018  0.2192
   69OL    C116 3073   5.939   1.518   3.792 -0.0115 -0.4725 -0.2121
   69OL    H16R 3074   5.953   1.590   3.711  0.5616 -2.1146 -1.6543
   69OL    H16S 3075   5.831   1.501   3.799 -0.3576  2.1982  2.3398
   69OL    C117 3076   6.028   1.396   3.768  0.1309 -0.1441  0.1663
   69OL    H17R 3077   6.024   1.330   3.855 -2.8596  0.0957  0.3047
   69OL    H17S 3078   6.129   1.435   3.755 -0.2893  1.7827  2.0566
   69OL    C118 3079   5.993   1.302   3.642  0.5143  0.4025  0.3609
   69OL    H18R 3080   5.941   1.364   3.567 -0.9871  0.9261  1.7752
   69OL    H18S 3081   5.920   1.225   3.667 -0.7200  1.4423  0.1124
   69OL    H18T 3082   6.078   1.241   3.612 -0.2606 -0.6421  0.2459
   70PA    C116 3083   4.416   5.107   3.926  0.7100  0.1724  0.4481
   70PA    H16R 3084   4.336   5.164   3.972 -1.2754 -3.3175  1.6693
   70PA    H16S 3085   4.443   5.140   3.825  2.2852 -0.7266  0.5296
   70PA    H16T 3086   4.503   5.125   3.990  0.3973 -0.7364  1.1641
   70PA    C115 3087   4.383   4.957   3.925 -0.4596 -0.3920  0.3594
   70PA    H15R 3088   4.298   4.941   3.858 -1.0427 -0.6732  1.1570
   70PA    H15S 3089   4.467   4.897   3.890 -1.3694 -1.0768 -0.7096
   70PA    C114 3090   4.333   4.897   4.055 -0.7551 -0.1529 -0.5344
   70PA    H14R 3091   4.315   4.790   4.040 -2.1617  0.0772 -0.6512
   70PA    H14S 3092   4.414   4.896   4.128 -1.3871 -0.4071  0.1701
   70PA    C113 3093   4.202   4.944   4.112 -0.0278  0.2982 -0.2600
   70PA    H13R 3094   4.187   5.052   4.111 -0.9779  0.1719 -0.2448
   70PA    H13S 3095   4.122   4.924   4.040  0.1213  2.2231 -1.0169
   70PA    C112 3096   4.166   4.884   4.251  0.8800 -0.9181 -0.1241
   70PA    H12R 3097   4.193   4.953   4.331  1.4234 -1.6971  0.3795
   70PA    H12S 3098   4.058   4.867   4.252  0.4738  1.2717 -1.4632
   70PA    C111 3099   4.220   4.739   4.286  0.1615 -0.0143  0.1640
   70PA    H11R 3100   4.167   4.669   4.221 -0.2627  1.0398 -0.6480
   70PA    H11S 3101   4.327   4.720   4.270  0.0739  0.1266 -0.6305
   70PA    C110 3102   4.172   4.717   4.438 -0.0857 -0.4389  0.1457
   70PA    H10R 3103   4.070   4.755   4.440 -0.2815 -0.9889  0.7929
   70PA    H10S 3104   4.182   4.610   4.454 -0.7359 -0.8226 -1.7774
   70PA     C19 3105   4.247   4.807   4.541 -0.1230  0.4290 -0.5015
   70PA     H9R 3106   4.348   4.817   4.501  0.5122 -3.0992 -0.0487
   70PA     H9S 3107   4.198   4.905   4.547  1.4515  1.1834  2.6851
   70PA     C18 3108   4.249   4.754   4.685 -0.1565 -0.2514 -0.3062
   70PA     H8R 3109   4.151   4.774   4.728 -0.0067 -2.2658  1.1121
   70PA     H8S 3110   4.262   4.645   4.681  4.0431 -0.0544  2.2276
   70PA     C17 3111   4.360   4.814   4.767 -0.4973  0.0242 -0.2769
   70PA     H7R 3112   4.455   4.808   4.713  0.2832  0.6803  0.9718
   70PA     H7S 3113   4.357   4.922   4.782  4.1792  0.5998 -1.6835
   70PA     C16 3114   4.358   4.758   4.914 -0.5194 -0.6244  0.3265
   70PA     H6R 3115   4.340   4.650   4.910 -1.6042 -0.4454 -3.3998
   70PA     H6S 3116   4.445   4.795   4.969 -1.3018 -0.3006  1.3862
   70PA     C15 3117   4.244   4.832   4.991  0.7382 -0.0429  0.0137
   70PA     H5R 3118   4.243   4.940   4.980 -0.9797  0.1244  1.4386
   70PA     H5S 3119   4.150   4.805   4.944  0.7951 -0.9133  0.3744
   70PA     C14 3120   4.244   4.806   5.138  1.6544 -0.8139  0.8127
   70PA     H4R 3121   4.337   4.851   5.173  1.4491  2.0715 -1.8943
   70PA     H4S 3122   4.161   4.852   5.192  0.4044 -2.2803  0.2136
   70PA     C13 3123   4.233   4.656   5.165  0.2748  0.4512  0.5223
   70PA     H3R 3124   4.140   4.623   5.119  0.1296 -0.2266  1.2821
   70PA     H3S 3125   4.318   4.602   5.122 -0.0932 -0.3277  0.7625
   70PA     C12 3126   4.227   4.625   5.317 -0.0390 -0.3707 -0.8920
   70PA     H2R 3127   4.329   4.640   5.353 -1.0907  2.8358  1.1370
   70PA     H2S 3128   4.167   4.695   5.374  0.2614 -0.7556 -0.0934
   71PC     C11 3129   4.184   4.481   5.348  0.0248 -0.4788 -0.4255
   71PC     O12 3130   4.073   4.452   5.397  0.1698  0.0047  0.5934
   71PC     O11 3131   4.277   4.397   5.302 -0.2924 -0.6163 -0.1682
   71PC      C1 3132   4.255   4.252   5.333  0.4132 -0.1121  0.1404
   71PC      HR 3133   4.346   4.192   5.330  1.0666  0.8642  0.0160
   71PC      HS 3134   4.223   4.243   5.438  0.1850  0.6685  0.1407
   71PC      C2 3135   4.144   4.185   5.251 -0.5394 -0.1256 -0.6066
   71PC      HX 3136   4.056   4.250   5.249 -0.8317 -0.5416 -1.9325
   71PC      C3 3137   4.107   4.040   5.303  0.2175  0.3415 -0.4834
   71PC      HA 3138   4.039   4.027   5.387  0.4149 -3.2092 -0.7051
   71PC      HB 3139   4.068   3.996   5.211 -0.2219 -0.3798  0.0388
   71PC     O31 3140   4.223   3.950   5.326 -0.1975 -0.4165  0.2219
   71PC     P31 3141   4.278   3.902   5.473  0.4145  0.1035  0.1141
   71PC     O32 3142   4.173   3.803   5.538  0.0865  0.9391 -0.2648
   71PC     C31 3143   4.188   3.658   5.541  0.0018 -0.0966 -0.6076
   71PC     H1A 3144   4.290   3.632   5.570 -0.7188 -1.0563  1.1834
   71PC     H1B 3145   4.126   3.627   5.625  2.2887 -1.6975  0.6169
   71PC     C32 3146   4.154   3.586   5.409  0.1863  0.2311 -0.2505
   71PC     H2A 3147   4.202   3.633   5.322 -1.6633  1.4588 -0.6536
   71PC     H2B 3148   4.189   3.482   5.409 -0.2961  0.0148  1.9378
   71PC     N31 3149   4.010   3.588   5.370 -0.3735  0.1065 -0.9205
   71PC     C33 3150   3.998   3.503   5.244 -0.3774 -0.1365  0.3162
   71PC     H3A 3151   4.037   3.404   5.267 -0.9693 -0.1098  1.4939
   71PC     H3B 3152   3.891   3.496   5.224 -0.1593 -3.0773 -0.2944
   71PC     H3C 3153   4.052   3.546   5.159 -0.7391  1.4892  0.8740
   71PC     C34 3154   3.921   3.511   5.460 -0.0940  0.3423 -0.5005
   71PC     H4A 3155   3.925   3.551   5.561 -2.2986 -0.0267 -0.2148
   71PC     H4B 3156   3.817   3.515   5.427 -0.2429  0.2374 -0.0496
   71PC     H4C 3157   3.958   3.409   5.461 -0.4535  0.2108  0.2877
   71PC     C35 3158   3.957   3.727   5.364 -0.4832  0.2906  0.3130
   71PC     H5A 3159   4.026   3.787   5.304 -1.3818  0.4044 -0.6390
   71PC     H5B 3160   3.942   3.763   5.466 -0.2380 -1.2741  0.9179
   71PC     H5C 3161   3.858   3.723   5.319 -0.7273  0.0506  0.8578
   71PC     O33 3162   4.405   3.834   5.465 -0.1911 -0.3913 -0.5458
   71PC     O34 3163   4.272   4.027   5.553 -0.6935  0.1853 -0.6413
   71PC     O21 3164   4.188   4.168   5.120  0.2072  0.4037  0.0349
   71PC     C21 3165   4.185   4.272   5.034  0.1606  0.5794 -0.1544
   71PC     O22 3166   4.126   4.382   5.051 -0.2881  0.3611  0.1033
   72OL     C12 3167   4.242   4.233   4.899  0.1714  0.6038  0.0831
   72OL     H2R 3168   4.349   4.216   4.910  0.0595  1.4018  4.2032
   72OL     H2S 3169   4.215   4.308   4.824 -0.2043  1.3145  0.9085
   72OL     C13 3170   4.166   4.109   4.839 -0.7188  0.6672  0.7728
   72OL     H3R 3171   4.059   4.129   4.843 -0.4694  2.4323 -0.3332
   72OL     H3S 3172   4.193   4.020   4.896  2.8270 -0.1428 -1.8574
   72OL     C14 3173   4.190   4.078   4.690 -0.4778  0.5664 -0.1128
   72OL     H4R 3174   4.290   4.035   4.674 -0.4197  0.9768 -0.8846
   72OL     H4S 3175   4.185   4.170   4.632 -1.9313  1.5498  1.4844
   72OL     C15 3176   4.087   3.982   4.625 -0.3613  0.1592 -0.3401
   72OL     H5R 3177   3.991   4.033   4.623 -0.3354  0.5605  2.8130
   72OL     H5S 3178   4.075   3.890   4.684  0.5905 -0.2152 -0.7056
   72OL     C16 3179   4.116   3.952   4.481  0.8642  0.3074 -0.0119
   72OL     H6R 3180   4.103   4.040   4.418  0.3533  0.1768 -0.0907
   72OL     H6S 3181   4.036   3.882   4.457  0.0762  1.1211  0.1812
   72OL     C17 3182   4.254   3.890   4.453  0.6817 -0.4617  0.1610
   72OL     H7R 3183   4.280   3.821   4.534 -1.2608 -0.9135  0.4625
   72OL     H7S 3184   4.319   3.977   4.449 -1.3553  1.2328  1.7468
   72OL     C18 3185   4.263   3.811   4.324  0.5285  0.6758  0.3115
   72OL     H8R 3186   4.267   3.886   4.245  1.9123  2.4656  1.9834
   72OL     H8S 3187   4.182   3.738   4.326  0.6547  0.5135 -0.2321
   72OL     C19 3188   4.405   3.747   4.313 -0.2090  0.3090  0.2747
   72OL     H9R 3189   4.483   3.819   4.290  0.1374  0.8396  2.9002
   72OL    C110 3190   4.428   3.618   4.309 -0.0580  0.2821 -1.1378
   72OL    H10R 3191   4.528   3.576   4.307  0.6604  1.6388  1.6362
   72OL    C111 3192   4.325   3.507   4.294  0.4152  0.2030  0.0144
   72OL    H11R 3193   4.224   3.540   4.319  0.3583  0.1330 -0.1197
   72OL    H11S 3194   4.349   3.440   4.377 -1.1518  0.4994  0.7265
   72OL    C112 3195   4.321   3.438   4.158  0.3152 -0.3033  0.8397
   72OL    H12R 3196   4.266   3.344   4.167 -1.7173  0.8354  0.6591
   72OL    H12S 3197   4.425   3.416   4.132  0.2453 -2.0259  1.8209
   72OL    C113 3198   4.267   3.526   4.045  0.4383 -0.4569 -0.4667
   72OL    H13R 3199   4.296   3.491   3.946  1.1370 -1.7393  0.1773
   72OL    H13S 3200   4.317   3.622   4.061 -1.5072  0.4441  0.6110
   72OL    C114 3201   4.110   3.565   4.046 -0.6082  0.5888  0.0540
   72OL    H14R 3202   4.107   3.632   3.960  1.1357  0.3644 -0.2353
   72OL    H14S 3203   4.089   3.613   4.142  0.1970  1.0360  0.0199
   72OL    C115 3204   4.022   3.437   4.027 -0.1317 -0.2057 -0.2808
   72OL    H15R 3205   3.918   3.450   4.058  0.2400 -0.4945  1.1668
   72OL    H15S 3206   4.053   3.365   4.103 -0.1563  0.0699 -0.0073
   72OL    C116 3207   4.033   3.373   3.888 -0.3023  0.4132 -0.1675
   72OL    H16R 3208   4.134   3.333   3.881 -1.6850 -3.4965 -0.6022
   72OL    H16S 3209   4.021   3.445   3.808 -0.1983  1.0864  0.4133
   72OL    C117 3210   3.924   3.260   3.867 -0.6274  0.6703  0.7445
   72OL    H17R 3211   3.827   3.304   3.891  0.9103  3.4628  2.4745
   72OL    H17S 3212   3.948   3.186   3.944  1.5418  0.4390 -0.0853
   72OL    C118 3213   3.923   3.194   3.722  0.3569  0.0272 -0.1553
   72OL    H18R 3214   3.871   3.258   3.650  0.5608  1.4001  0.8911
   72OL    H18S 3215   3.856   3.108   3.726 -2.4903  2.0552 -0.8634
   72OL    H18T 3216   4.021   3.162   3.688  0.8350  2.3940 -1.1731
   73PA    C116 3217   3.899   1.993   3.496  0.6909 -0.0610  0.6759
   73PA    H16R 3218   3.849   1.929   3.570  0.0378  1.0573  1.2249
   73PA    H16S 3219   4.002   2.015   3.521  1.2463 -2.2078  0.4434
   73PA    H16T 3220   3.891   1.943   3.400 -1.1229  1.3555  0.0133
   73PA    C115 3221   3.814   2.120   3.495 -0.2382  0.8245 -0.2542
   73PA    H15R 3222   3.852   2.181   3.413 -2.4458  2.1317 -0.3790
   73PA    H15S 3223   3.708   2.102   3.481 -0.7572  2.4042  1.3415
   73PA    C114 3224   3.827   2.184   3.639  0.0282 -0.2637 -0.4477
   73PA    H14R 3225   3.784   2.110   3.708  0.8600 -1.6690 -1.3758
   73PA    H14S 3226   3.931   2.192   3.670 -0.4111 -0.7851  1.3434
   73PA    C113 3227   3.762   2.326   3.637  0.3099 -0.3590 -0.2988
   73PA    H13R 3228   3.814   2.390   3.566  0.9723 -0.2960  0.2270
   73PA    H13S 3229   3.656   2.312   3.615  0.7968 -1.7805 -1.9173
   73PA    C112 3230   3.784   2.405   3.772  0.3100 -0.9826  0.1505
   73PA    H12R 3231   3.890   2.413   3.797  0.5503  1.8655 -1.3525
   73PA    H12S 3232   3.759   2.511   3.758  2.1024 -0.5941 -0.3399
   73PA    C111 3233   3.707   2.345   3.892  0.4097  0.0260  0.6841
   73PA    H11R 3234   3.605   2.331   3.854  1.0002  0.5776 -1.2085
   73PA    H11S 3235   3.751   2.251   3.926 -0.9947 -0.3043  1.7003
   73PA    C110 3236   3.704   2.446   4.009 -0.1873  0.3461  0.4109
   73PA    H10R 3237   3.639   2.533   3.994 -1.2178 -0.4701  0.0442
   73PA    H10S 3238   3.654   2.398   4.093 -0.7485 -3.3481 -1.8455
   73PA     C19 3239   3.851   2.489   4.038 -0.4160  0.5814  0.1349
   73PA     H9R 3240   3.911   2.399   4.044 -1.2371 -0.0128 -0.4351
   73PA     H9S 3241   3.893   2.556   3.963  1.9925 -0.5121  0.4530
   73PA     C18 3242   3.869   2.569   4.169  0.2227 -0.5329 -0.4152
   73PA     H8R 3243   3.971   2.544   4.199 -0.7345 -4.8769 -0.1277
   73PA     H8S 3244   3.856   2.675   4.148  1.9340 -0.1722  0.2104
   73PA     C17 3245   3.775   2.524   4.285  0.2548  0.4144  0.4142
   73PA     H7R 3246   3.682   2.570   4.250 -0.2082 -1.7945 -1.4316
   73PA     H7S 3247   3.767   2.416   4.300 -1.0699  0.0007 -2.5289
   73PA     C16 3248   3.804   2.582   4.427 -0.6455  0.0330  0.1244
   73PA     H6R 3249   3.718   2.576   4.495 -0.0711 -1.7276  0.7528
   73PA     H6S 3250   3.884   2.519   4.467  0.6557  1.4436 -0.1300
   73PA     C15 3251   3.841   2.734   4.427  0.0040 -0.3071  0.6810
   73PA     H5R 3252   3.929   2.742   4.363  0.8042 -0.4849  1.7172
   73PA     H5S 3253   3.757   2.785   4.381 -0.5327 -0.5917  1.3210
   73PA     C14 3254   3.873   2.796   4.571  0.2663 -0.1247 -0.4241
   73PA     H4R 3255   3.833   2.739   4.656  1.4962  1.1741  1.0856
   73PA     H4S 3256   3.981   2.784   4.580  0.0153 -1.3558  1.5535
   73PA     C13 3257   3.834   2.944   4.580  0.9398 -0.1771 -0.8903
   73PA     H3R 3258   3.862   2.997   4.489 -1.7681 -0.9920 -2.3464
   73PA     H3S 3259   3.726   2.959   4.590  0.6408 -2.7711  0.5525
   73PA     C12 3260   3.907   3.013   4.705  0.4169 -0.0886  0.0267
   73PA     H2R 3261   4.014   3.012   4.683  0.6475 -1.8482  1.0254
   73PA     H2S 3262   3.881   3.118   4.696  2.3055  0.3266 -1.5832
   74PC     C11 3263   3.869   2.955   4.842  0.0359 -0.2152  1.0168
   74PC     O12 3264   3.933   2.862   4.887 -0.0077 -0.3948 -0.1230
   74PC     O11 3265   3.757   3.011   4.901 -0.4368  0.5146 -0.2187
   74PC      C1 3266   3.733   2.970   5.040 -0.3145 -0.6548 -0.1610
   74PC      HR 3267   3.715   2.863   5.046 -0.4898 -0.7490 -1.8726
   74PC      HS 3268   3.823   2.982   5.100 -0.8124 -0.8767  0.6380
   74PC      C2 3269   3.617   3.053   5.099  0.0818  0.3045 -0.0611
   74PC      HX 3270   3.646   3.157   5.080  1.5372  0.2862  1.8118
   74PC      C3 3271   3.607   3.023   5.249  0.1489 -0.3769 -0.1154
   74PC      HA 3272   3.523   3.084   5.284 -0.8744 -1.9293  0.2091
   74PC      HB 3273   3.586   2.917   5.263 -4.0693  0.4667  1.7422
   74PC     O31 3274   3.728   3.051   5.322  0.1808  0.4660 -0.2300
   74PC     P31 3275   3.776   3.208   5.350  0.2446  0.5944  0.4240
   74PC     O32 3276   3.728   3.237   5.495 -0.0607  0.1715 -0.0914
   74PC     C31 3277   3.791   3.185   5.610  0.1424 -0.0068  0.1820
   74PC     H1A 3278   3.773   3.078   5.607 -0.8095  0.1696 -1.2324
   74PC     H1B 3279   3.897   3.212   5.610  0.5780 -1.6099  1.0306
   74PC     C32 3280   3.711   3.249   5.721  0.1457 -0.1800 -0.3095
   74PC     H2A 3281   3.694   3.355   5.703 -2.2213 -0.7029 -1.5265
   74PC     H2B 3282   3.614   3.205   5.742 -1.2054  2.0117 -1.5878
   74PC     N31 3283   3.774   3.245   5.854  0.4359  0.1100  0.0187
   74PC     C33 3284   3.809   3.109   5.888 -0.3186 -0.1244  0.7117
   74PC     H3A 3285   3.717   3.050   5.893 -1.4425  1.5841  0.8217
   74PC     H3B 3286   3.885   3.076   5.817 -1.2453 -1.4850  0.2937
   74PC     H3C 3287   3.857   3.113   5.985  0.4582 -0.1915  0.3324
   74PC     C34 3288   3.891   3.334   5.854 -0.3586 -0.5176  0.0202
   74PC     H4A 3289   3.856   3.434   5.829  0.6766  0.2296  1.4357
   74PC     H4B 3290   3.948   3.328   5.947  1.4936 -2.7109 -1.1572
   74PC     H4C 3291   3.962   3.297   5.781  1.5249  0.1417  1.4211
   74PC     C35 3292   3.677   3.281   5.958  0.8507  0.6086 -0.0269
   74PC     H5A 3293   3.730   3.266   6.052 -0.3636  1.3251  0.8012
   74PC     H5B 3294   3.583   3.226   5.947  0.3374  1.5703 -0.6393
   74PC     H5C 3295   3.650   3.384   5.934  0.9693  0.3034 -1.5955
   74PC     O33 3296   3.926   3.216   5.351  0.0496 -0.1259  0.1470
   74PC     O34 3297   3.713   3.303   5.259  0.5586 -0.0516  0.4512
   74PC     O21 3298   3.492   3.016   5.037 -0.5308 -0.4727  0.0591
   74PC     C21 3299   3.415   3.116   4.990 -0.4615 -0.6300  0.0118
   74PC     O22 3300   3.457   3.231   4.979 -0.1780 -0.0432 -0.4215
   75OL     C12 3301   3.271   3.068   4.981 -0.3719  0.3854 -0.8943
   75OL     H2R 3302   3.274   3.014   5.076 -3.4636 -1.9514 -1.9540
   75OL     H2S 3303   3.251   2.989   4.907 -1.1523 -0.1717 -0.1003
   75OL     C13 3304   3.170   3.176   4.984 -0.3171 -0.0216  0.0098
   75OL     H3R 3305   3.207   3.245   5.060 -0.4262 -2.7267  2.7158
   75OL     H3S 3306   3.078   3.127   5.016 -0.5117 -0.1958 -0.7810
   75OL     C14 3307   3.145   3.242   4.844 -0.2882  0.1081 -0.1816
   75OL     H4R 3308   3.136   3.170   4.763  0.0771 -1.4827  1.1282
   75OL     H4S 3309   3.232   3.306   4.826  0.6308 -0.2643  2.4376
   75OL     C15 3310   3.016   3.325   4.851 -0.3619 -0.2831 -0.6623
   75OL     H5R 3311   3.011   3.373   4.949 -1.7585 -1.2438 -0.2384
   75OL     H5S 3312   2.928   3.261   4.843 -1.1199  0.9403 -2.9893
   75OL     C16 3313   3.006   3.428   4.736  0.0200  0.2515 -0.0360
   75OL     H6R 3314   3.091   3.494   4.753 -1.3300  1.7416  1.3172
   75OL     H6S 3315   2.914   3.485   4.748  0.6531  1.5685 -1.1345
   75OL     C17 3316   3.010   3.380   4.586 -0.1720  0.0075 -0.7183
   75OL     H7R 3317   2.914   3.339   4.554 -0.2046  0.3870 -1.1075
   75OL     H7S 3318   3.085   3.301   4.581  1.0504  1.1799 -1.4065
   75OL     C18 3319   3.051   3.489   4.478 -1.0847  0.7307  0.1970
   75OL     H8R 3320   3.142   3.537   4.513 -0.7685  0.7948 -0.7100
   75OL     H8S 3321   2.977   3.568   4.467  0.1960  1.9969  0.4394
   75OL     C19 3322   3.093   3.417   4.348 -0.5088 -0.8872  0.8391
   75OL     H9R 3323   3.198   3.392   4.349 -0.2150  0.2705  0.4505
   75OL    C110 3324   3.007   3.393   4.247  0.2917  0.8597 -0.3676
   75OL    H10R 3325   3.040   3.342   4.157 -0.7309 -1.4668  0.4907
   75OL    C111 3326   2.857   3.424   4.251  0.7275  0.0919 -0.2760
   75OL    H11R 3327   2.819   3.428   4.353 -2.3273  0.3845 -1.3115
   75OL    H11S 3328   2.803   3.339   4.209  0.4856 -1.4986  3.0198
   75OL    C112 3329   2.841   3.556   4.177 -0.7407  0.7218  0.5705
   75OL    H12R 3330   2.903   3.558   4.087  2.0207 -1.5594  2.2442
   75OL    H12S 3331   2.880   3.628   4.249 -0.7808  0.6711  0.6429
   75OL    C113 3332   2.699   3.586   4.129 -0.0250 -0.4648  0.1686
   75OL    H13R 3333   2.631   3.585   4.215 -1.1215  0.3947 -0.6472
   75OL    H13S 3334   2.674   3.500   4.066  1.0224 -1.2877  0.8638
   75OL    C114 3335   2.689   3.717   4.053 -0.6855  0.2076 -0.0729
   75OL    H14R 3336   2.767   3.723   3.977 -0.2959 -1.3271  0.1831
   75OL    H14S 3337   2.701   3.800   4.124  0.2964  0.4297 -0.4740
   75OL    C115 3338   2.557   3.725   3.984 -0.7026  0.0628 -0.7627
   75OL    H15R 3339   2.535   3.642   3.917  1.9281 -1.9929  0.7633
   75OL    H15S 3340   2.552   3.815   3.922 -1.1646 -0.2608 -1.2014
   75OL    C116 3341   2.445   3.740   4.084 -0.2713  0.3299 -0.1788
   75OL    H16R 3342   2.458   3.824   4.152 -1.2061  0.2573  0.1043
   75OL    H16S 3343   2.432   3.654   4.150 -0.6748  1.0683  0.7300
   75OL    C117 3344   2.311   3.773   4.025  0.6190  0.6931  0.5061
   75OL    H17R 3345   2.295   3.699   3.947  1.2610 -0.1508  1.1572
   75OL    H17S 3346   2.318   3.875   3.986 -2.1405  0.5916 -0.5336
   75OL    C118 3347   2.202   3.769   4.138  0.2847  0.4213  0.1338
   75OL    H18R 3348   2.247   3.825   4.220 -0.2214  0.8858  0.1022
   75OL    H18S 3349   2.172   3.668   4.166  2.8401 -0.4223  0.0502
   75OL    H18T 3350   2.114   3.824   4.104  0.2523 -0.1167 -0.6827
   76PA    C116 3351   4.384   3.778   3.680  0.4308 -0.3225 -0.4615
   76PA    H16R 3352   4.387   3.884   3.653  1.7304 -0.1175  0.3685
   76PA    H16S 3353   4.279   3.750   3.685 -0.8076  2.8426 -4.2297
   76PA    H16T 3354   4.433   3.712   3.609  1.3450 -2.0898  1.7055
   76PA    C115 3355   4.457   3.770   3.814  0.0855 -0.1328  0.1684
   76PA    H15R 3356   4.452   3.664   3.840  0.4536 -0.8067 -2.2732
   76PA    H15S 3357   4.558   3.808   3.799 -0.3702  1.2192  0.4307
   76PA    C114 3358   4.394   3.852   3.924 -0.0993 -0.4973  0.0996
   76PA    H14R 3359   4.303   3.799   3.953  1.1851 -2.9175 -0.0962
   76PA    H14S 3360   4.462   3.854   4.009  0.0720 -1.2244 -0.0189
   76PA    C113 3361   4.367   4.004   3.895  0.3345  0.1307  0.0725
   76PA    H13R 3362   4.459   4.055   3.866  0.4847 -0.0714  0.1895
   76PA    H13S 3363   4.297   4.014   3.812 -1.7580 -2.0564  1.4203
   76PA    C112 3364   4.310   4.089   4.013  0.0812 -0.0388 -0.1320
   76PA    H12R 3365   4.210   4.054   4.038 -1.2118  1.6128 -2.5663
   76PA    H12S 3366   4.374   4.068   4.099  0.1800 -1.0495 -0.4434
   76PA    C111 3367   4.319   4.242   3.992  1.0190 -0.3360 -0.5859
   76PA    H11R 3368   4.421   4.268   3.962  1.7175 -0.6427  1.3730
   76PA    H11S 3369   4.255   4.286   3.915 -0.1464  1.8760  1.5296
   76PA    C110 3370   4.284   4.327   4.116 -0.4238  0.4339 -0.1036
   76PA    H10R 3371   4.313   4.431   4.099  1.0981 -0.0358 -0.5680
   76PA    H10S 3372   4.177   4.324   4.137 -0.1093  2.6117  2.4014
   76PA     C19 3373   4.360   4.271   4.242 -0.2877 -0.3244 -0.1165
   76PA     H9R 3374   4.339   4.165   4.260  0.6042 -0.5223 -0.1744
   76PA     H9S 3375   4.464   4.262   4.209  0.3750  3.4058  0.4811
   76PA     C18 3376   4.371   4.364   4.359  0.3230 -0.4846 -0.3476
   76PA     H8R 3377   4.424   4.450   4.319 -0.0328 -0.4268 -0.7138
   76PA     H8S 3378   4.276   4.396   4.403  0.4631  0.0506 -0.4309
   76PA     C17 3379   4.466   4.311   4.469 -0.3507  0.0039 -0.3593
   76PA     H7R 3380   4.426   4.214   4.500 -1.8959  1.1978  1.6000
   76PA     H7S 3381   4.560   4.289   4.418 -0.1052 -0.6165  0.3349
   76PA     C16 3382   4.482   4.409   4.592 -0.2957  0.2266 -0.1669
   76PA     H6R 3383   4.543   4.496   4.571  0.9376 -1.3450 -4.0387
   76PA     H6S 3384   4.379   4.434   4.615 -0.2720  0.1488  0.0290
   76PA     C15 3385   4.557   4.347   4.713 -0.2194 -0.8182  0.1767
   76PA     H5R 3386   4.508   4.263   4.762  1.1710 -2.8425 -1.6964
   76PA     H5S 3387   4.658   4.320   4.685  0.8875  2.2412  0.7868
   76PA     C14 3388   4.572   4.450   4.828  0.0528  0.3263  0.0440
   76PA     H4R 3389   4.615   4.540   4.783  2.1692 -0.9676 -0.6678
   76PA     H4S 3390   4.470   4.477   4.853  0.3552  0.3665  1.2927
   76PA     C13 3391   4.643   4.407   4.948 -0.2268 -0.4009 -0.5737
   76PA     H3R 3392   4.617   4.303   4.970  2.3715 -0.6114  2.0601
   76PA     H3S 3393   4.750   4.422   4.934  0.2700  1.0841  3.6017
   76PA     C12 3394   4.604   4.496   5.065  0.5421 -0.1729 -0.2468
   76PA     H2R 3395   4.607   4.600   5.033 -1.6410  0.0998  0.2735
   76PA     H2S 3396   4.501   4.487   5.100  1.2533 -0.8107  1.8344
   77PC     C11 3397   4.689   4.478   5.188 -0.7071 -0.1847  0.8105
   77PC     O12 3398   4.798   4.420   5.190 -0.0319  0.3217 -0.1813
   77PC     O11 3399   4.634   4.534   5.296 -0.8215 -0.1210 -0.2963
   77PC      C1 3400   4.706   4.549   5.417  0.6795 -0.4905 -0.3188
   77PC      HR 3401   4.743   4.452   5.451  3.2045  1.3602  2.7006
   77PC      HS 3402   4.788   4.618   5.400  0.1646  0.3744  0.6241
   77PC      C2 3403   4.623   4.616   5.532  0.6892  0.0346 -0.3672
   77PC      HX 3404   4.687   4.636   5.619  1.6346  2.2275 -1.4797
   77PC      C3 3405   4.499   4.527   5.570  0.6610 -0.1805 -0.5380
   77PC      HA 3406   4.451   4.477   5.486 -1.7099 -1.1940  1.3069
   77PC      HB 3407   4.532   4.451   5.641  0.6623 -1.0579 -1.4523
   77PC     O31 3408   4.388   4.595   5.640 -0.4600  0.0191 -0.3068
   77PC     P31 3409   4.391   4.614   5.798 -0.1445  0.3208 -0.0361
   77PC     O32 3410   4.322   4.479   5.852  0.0523  0.0446 -0.4154
   77PC     C31 3411   4.178   4.469   5.864 -0.2965  0.2547  0.0045
   77PC     H1A 3412   4.133   4.543   5.930  0.0898 -0.7104  1.3814
   77PC     H1B 3413   4.148   4.494   5.762  0.6597 -4.0672 -1.5402
   77PC     C32 3414   4.135   4.330   5.904  0.4311 -0.6128  0.4143
   77PC     H2A 3415   4.029   4.321   5.881  0.5465 -1.2659  0.1307
   77PC     H2B 3416   4.192   4.263   5.840  1.1910 -1.2640  1.7217
   77PC     N31 3417   4.161   4.274   6.047 -0.0174 -0.1516  0.2252
   77PC     C33 3418   4.297   4.307   6.099 -0.3331  0.0818  0.1801
   77PC     H3A 3419   4.357   4.217   6.114 -0.2811 -0.2963 -2.0406
   77PC     H3B 3420   4.362   4.358   6.027  0.6968  0.1308  1.1119
   77PC     H3C 3421   4.295   4.364   6.192  0.7925 -1.1471  0.9939
   77PC     C34 3422   4.058   4.334   6.138 -0.0859  0.7047 -0.7114
   77PC     H4A 3423   3.966   4.291   6.099  1.5976 -1.9308 -2.0644
   77PC     H4B 3424   4.072   4.304   6.242 -1.5161  2.7482  0.1617
   77PC     H4C 3425   4.061   4.444   6.137  1.6871  0.7364  1.4063
   77PC     C35 3426   4.143   4.123   6.039 -0.2287  0.1291 -0.0746
   77PC     H5A 3427   4.128   4.087   6.141 -0.5759 -0.8025 -0.4371
   77PC     H5B 3428   4.229   4.083   5.986 -1.2735 -1.5825 -0.5751
   77PC     H5C 3429   4.050   4.100   5.986 -0.4184  0.1542  0.2409
   77PC     O33 3430   4.533   4.628   5.841  0.2017 -0.0403  0.3860
   77PC     O34 3431   4.294   4.721   5.832  0.2080 -0.0404  0.1440
   77PC     O21 3432   4.564   4.745   5.501  0.2244 -0.2826  0.0588
   77PC     C21 3433   4.639   4.853   5.471 -0.2854 -0.1742 -0.4263
   77PC     O22 3434   4.758   4.854   5.492  0.3516 -0.6131 -0.3406
   78OL     C12 3435   4.554   4.966   5.416  0.4086  0.0312  0.2648
   78OL     H2R 3436   4.488   5.000   5.495 -1.5315  0.2073 -1.3487
   78OL     H2S 3437   4.487   4.924   5.341  0.8373 -1.4772  0.6885
   78OL     C13 3438   4.622   5.080   5.332  0.2338  0.1623 -0.3222
   78OL     H3R 3439   4.711   5.099   5.393  0.0253  0.1530 -0.0144
   78OL     H3S 3440   4.563   5.171   5.327  0.0238  0.0414 -0.0916
   78OL     C14 3441   4.671   5.037   5.190  0.3110 -1.0404 -0.0032
   78OL     H4R 3442   4.734   5.119   5.156 -2.0071  0.7332 -0.2611
   78OL     H4S 3443   4.587   5.029   5.121  0.9301 -0.5155 -0.8284
   78OL     C15 3444   4.746   4.902   5.180  0.2759 -0.7060  0.0674
   78OL     H5R 3445   4.689   4.820   5.225  0.7297 -0.4555  1.1198
   78OL     H5S 3446   4.846   4.911   5.221  0.6291 -4.3155  0.3152
   78OL     C16 3447   4.770   4.863   5.032 -0.3838 -0.8054  0.0574
   78OL     H6R 3448   4.784   4.952   4.971  0.1662  0.7961  2.4260
   78OL     H6S 3449   4.678   4.822   4.988 -0.6329 -0.7185  0.4993
   78OL     C17 3450   4.881   4.763   5.010  0.0266 -0.5889  0.3362
   78OL     H7R 3451   4.876   4.682   5.082  0.4913 -0.6324  0.3219
   78OL     H7S 3452   4.978   4.811   5.024  0.4675 -1.7695  1.5263
   78OL     C18 3453   4.877   4.688   4.873  0.3299  0.3658  0.2097
   78OL     H8R 3454   4.787   4.627   4.857  0.2915  1.2437 -3.7553
   78OL     H8S 3455   4.966   4.625   4.870 -0.1802 -0.3652 -0.0366
   78OL     C19 3456   4.890   4.788   4.768  0.3295 -0.6333  0.4217
   78OL     H9R 3457   4.958   4.868   4.795 -0.4470  0.2105 -0.0440
   78OL    C110 3458   4.819   4.799   4.651 -0.0307 -0.7909 -0.1998
   78OL    H10R 3459   4.824   4.884   4.584 -2.7642 -0.7107 -0.4357
   78OL    C111 3460   4.738   4.689   4.598  0.3834 -0.6441 -1.0711
   78OL    H11R 3461   4.635   4.711   4.626  1.4237  0.2791  2.5713
   78OL    H11S 3462   4.747   4.593   4.648 -0.5361 -2.4135 -4.0217
   78OL    C112 3463   4.737   4.670   4.451 -0.5784  0.1512 -0.1246
   78OL    H12R 3464   4.663   4.734   4.402 -1.3522 -0.9425 -0.4247
   78OL    H12S 3465   4.690   4.573   4.435  1.4354 -0.7644 -0.8330
   78OL    C113 3466   4.872   4.656   4.376 -1.1929 -0.2772  0.4020
   78OL    H13R 3467   4.940   4.589   4.429  0.4178  0.2732 -0.8824
   78OL    H13S 3468   4.919   4.754   4.367 -1.0044 -0.3540  0.5556
   78OL    C114 3469   4.857   4.598   4.231 -0.0469 -0.0184 -0.9270
   78OL    H14R 3470   4.821   4.495   4.235  0.0057 -0.0541 -1.4408
   78OL    H14S 3471   4.954   4.595   4.182  0.4525  0.6305 -0.0202
   78OL    C115 3472   4.767   4.687   4.145 -0.1626  0.1537  0.7002
   78OL    H15R 3473   4.803   4.790   4.154  0.8304  0.0970 -1.8972
   78OL    H15S 3474   4.662   4.685   4.176 -0.3243  1.9203  0.3437
   78OL    C116 3475   4.783   4.630   4.004  0.5342  0.0619  0.3077
   78OL    H16R 3476   4.735   4.532   4.001  0.1786  0.2210  0.6219
   78OL    H16S 3477   4.886   4.625   3.968  0.0079 -0.7629 -1.1485
   78OL    C117 3478   4.707   4.724   3.910  0.1686 -0.1487  0.3703
   78OL    H17R 3479   4.764   4.816   3.893 -0.7091  0.4450  0.5698
   78OL    H17S 3480   4.617   4.757   3.963 -1.0869  1.1377 -2.3790
   78OL    C118 3481   4.677   4.648   3.777 -0.7821  0.0819  0.1849
   78OL    H18R 3482   4.625   4.555   3.800 -2.2551  1.3391  2.2441
   78OL    H18S 3483   4.764   4.628   3.714  0.8380  0.8098  2.0746
   78OL    H18T 3484   4.609   4.710   3.720 -1.2535  2.2035  2.8644
   79PA    C116 3485   2.500   6.333   4.770 -0.0628 -0.8480  0.0556
   79PA    H16R 3486   2.467   6.375   4.865 -1.0308  1.5287 -1.2329
   79PA    H16S 3487   2.512   6.412   4.695  0.2675 -1.0569 -0.1171
   79PA    H16T 3488   2.601   6.291   4.778 -0.4551 -1.6235  1.1483
   79PA    C115 3489   2.404   6.230   4.719  0.0920 -0.6018 -0.4363
   79PA    H15R 3490   2.306   6.280   4.723  0.4145 -0.0428  1.3871
   79PA    H15S 3491   2.421   6.205   4.614 -0.1497 -2.6035 -0.0419
   79PA    C114 3492   2.404   6.100   4.799  0.4715 -0.3470  0.7562
   79PA    H14R 3493   2.497   6.048   4.773  0.6203  0.2719 -0.0132
   79PA    H14S 3494   2.400   6.121   4.906 -1.8691  0.6401  0.5270
   79PA    C113 3495   2.294   5.997   4.755  0.6090 -0.2949 -0.5366
   79PA    H13R 3496   2.311   5.964   4.652  2.1666 -2.1056  0.2342
   79PA    H13S 3497   2.302   5.901   4.807  1.1648  0.0422  0.0084
   79PA    C112 3498   2.146   6.040   4.767  0.2688  0.4429  0.1960
   79PA    H12R 3499   2.133   6.146   4.747 -0.2578  0.2186 -0.7162
   79PA    H12S 3500   2.095   5.992   4.683  3.2858 -0.8300 -1.0499
   79PA    C111 3501   2.069   6.010   4.900  0.0229  0.1682  0.1555
   79PA    H11R 3502   1.964   6.038   4.892 -0.1969 -0.3953  1.0400
   79PA    H11S 3503   2.066   5.903   4.919  0.7822  0.3308  1.3306
   79PA    C110 3504   2.139   6.077   5.012  0.0203  0.3055  0.1665
   79PA    H10R 3505   2.227   6.018   5.036  2.3411  3.6825  0.6136
   79PA    H10S 3506   2.186   6.171   4.982 -0.0592 -0.3908 -2.3808
   79PA     C19 3507   2.055   6.095   5.138  0.5332  0.0020 -0.4175
   79PA     H9R 3508   1.962   6.147   5.112  0.1598 -0.8867 -0.9018
   79PA     H9S 3509   2.034   5.994   5.174  0.8560  0.0129 -0.2015
   79PA     C18 3510   2.117   6.172   5.253  0.5384 -0.4806 -0.0616
   79PA     H8R 3511   2.206   6.118   5.284  1.2194 -0.5892 -2.0651
   79PA     H8S 3512   2.161   6.260   5.207 -0.6647  1.2160  1.8304
   79PA     C17 3513   2.027   6.220   5.364 -0.4391  0.3215 -0.0333
   79PA     H7R 3514   1.935   6.266   5.328 -1.3394 -0.4561  1.2155
   79PA     H7S 3515   1.978   6.136   5.414 -2.3729  0.0104 -2.2650
   79PA     C16 3516   2.084   6.321   5.457  0.2484 -0.2319 -0.1487
   79PA     H6R 3517   2.110   6.411   5.401  2.4566  0.2965  1.5634
   79PA     H6S 3518   2.002   6.354   5.520 -2.3324 -3.2602 -1.6410
   79PA     C15 3519   2.210   6.270   5.536 -0.2990  0.3247 -0.4782
   79PA     H5R 3520   2.285   6.230   5.468  0.1069  1.9997 -1.0631
   79PA     H5S 3521   2.265   6.349   5.586 -0.0149  0.8787 -1.6441
   79PA     C14 3522   2.187   6.157   5.640  0.8043  0.3929  0.1247
   79PA     H4R 3523   2.132   6.199   5.724  1.0310  0.3964  0.2749
   79PA     H4S 3524   2.137   6.068   5.602 -1.3731  1.4099  0.4858
   79PA     C13 3525   2.320   6.116   5.699  0.2327 -0.1198 -0.3626
   79PA     H3R 3526   2.378   6.078   5.614  0.0988  0.4899 -0.7342
   79PA     H3S 3527   2.360   6.197   5.759 -1.3652 -1.0139  2.0687
   79PA     C12 3528   2.315   5.999   5.802 -0.0142 -0.2594 -0.6114
   79PA     H2R 3529   2.293   5.905   5.751 -0.4478 -1.5280  1.8079
   79PA     H2S 3530   2.418   5.990   5.838 -0.4948  0.6988  1.0702
   80PC     C11 3531   2.223   6.023   5.917  0.2104  0.0524 -0.1265
   80PC     O12 3532   2.232   6.125   5.984 -0.4489  0.0183  0.3555
   80PC     O11 3533   2.124   5.935   5.925 -0.5848 -0.1586 -0.6183
   80PC      C1 3534   2.013   5.962   6.015 -0.3777 -0.2013 -0.1734
   80PC      HR 3535   1.949   5.873   6.018 -1.2238  0.3838 -0.6023
   80PC      HS 3536   2.062   5.980   6.111  0.7867 -0.6599 -0.6606
   80PC      C2 3537   1.936   6.084   5.979  0.5972  0.2286  0.2239
   80PC      HX 3538   1.997   6.175   5.976  2.3779 -0.8920 -2.5845
   80PC      C3 3539   1.820   6.113   6.076  0.9631 -0.2208  0.1457
   80PC      HA 3540   1.733   6.173   6.047  1.0597 -0.4401 -0.6110
   80PC      HB 3541   1.776   6.015   6.097 -0.4875  0.1728 -0.8644
   80PC     O31 3542   1.872   6.181   6.189 -0.1459  0.3204  0.4397
   80PC     P31 3543   1.894   6.109   6.332 -0.1628  0.3844 -0.0826
   80PC     O32 3544   1.759   6.122   6.409  0.0350  0.5106 -0.1833
   80PC     C31 3545   1.706   6.247   6.452 -0.5263 -0.5916 -1.0075
   80PC     H1A 3546   1.636   6.236   6.535  0.8743 -0.3032  0.2479
   80PC     H1B 3547   1.792   6.297   6.497 -0.8721  0.2082 -1.1994
   80PC     C32 3548   1.639   6.329   6.334  0.0148  0.3530 -1.1381
   80PC     H2A 3549   1.709   6.339   6.251  1.3121  0.4317 -0.0663
   80PC     H2B 3550   1.550   6.282   6.294 -1.4831  1.0490  1.1549
   80PC     N31 3551   1.597   6.477   6.361  0.3529  0.0422 -0.0093
   80PC     C33 3552   1.705   6.557   6.412  0.0693 -0.8322  0.7480
   80PC     H3A 3553   1.742   6.508   6.503  0.4847  0.5725  1.3561
   80PC     H3B 3554   1.776   6.568   6.330  0.6327 -0.8168  1.2268
   80PC     H3C 3555   1.666   6.656   6.431 -0.7151 -0.7486 -1.0697
   80PC     C34 3556   1.540   6.552   6.241  0.1091 -0.3497 -0.1431
   80PC     H4A 3557   1.515   6.655   6.267  0.5733 -0.2218 -0.1871
   80PC     H4B 3558   1.618   6.555   6.165  0.1972  0.5725 -0.0295
   80PC     H4C 3559   1.447   6.503   6.212 -1.6839  2.5371  0.2653
   80PC     C35 3560   1.497   6.477   6.473 -0.7082 -0.0862 -0.1343
   80PC     H5A 3561   1.461   6.580   6.478  0.5628  0.3596  0.1079
   80PC     H5B 3562   1.562   6.432   6.548 -0.3702 -1.2039 -1.0679
   80PC     H5C 3563   1.420   6.406   6.443 -1.2021 -0.1912  1.2925
   80PC     O33 3564   1.936   5.975   6.312  0.5269  0.0715  0.0749
   80PC     O34 3565   1.991   6.198   6.407  0.1984 -0.3456  0.5851
   80PC     O21 3566   1.869   6.064   5.847 -0.2983 -0.1307 -0.6955
   80PC     C21 3567   1.817   6.174   5.782 -0.1839 -0.2542  0.1880
   80PC     O22 3568   1.813   6.284   5.827  0.1652 -0.7762  0.0454
   81OL     C12 3569   1.748   6.130   5.659  0.2391  0.2160  0.0828
   81OL     H2R 3570   1.686   6.045   5.690 -0.5658  1.2832  1.5337
   81OL     H2S 3571   1.820   6.084   5.591  0.4206  0.0858  0.3607
   81OL     C13 3572   1.664   6.239   5.592 -0.2420 -0.8228  0.3782
   81OL     H3R 3573   1.735   6.315   5.559 -0.1831 -1.1602 -0.3047
   81OL     H3S 3574   1.602   6.283   5.670  1.2991  1.3726  0.4591
   81OL     C14 3575   1.574   6.193   5.475  1.0421  0.1826  0.5320
   81OL     H4R 3576   1.498   6.270   5.459 -1.6903 -2.2556  0.8097
   81OL     H4S 3577   1.521   6.103   5.508  1.3479 -0.2753 -0.1966
   81OL     C15 3578   1.657   6.173   5.344 -0.3652  0.4109 -0.0390
   81OL     H5R 3579   1.725   6.088   5.351 -2.0268 -1.0054 -0.5228
   81OL     H5S 3580   1.711   6.266   5.324 -0.3185  0.6012  0.9461
   81OL     C16 3581   1.558   6.139   5.227 -0.7304 -0.4331 -0.2707
   81OL     H6R 3582   1.499   6.226   5.199 -0.8386 -0.4181  0.0045
   81OL     H6S 3583   1.490   6.059   5.259  0.3497 -1.1686  0.2378
   81OL     C17 3584   1.651   6.078   5.109 -0.1055 -0.1393 -0.1994
   81OL     H7R 3585   1.686   5.981   5.144  0.1537  0.2213  0.5762
   81OL     H7S 3586   1.742   6.136   5.090 -1.4357  3.1322  2.4033
   81OL     C18 3587   1.571   6.061   4.977  0.5914 -0.0528  0.1743
   81OL     H8R 3588   1.539   6.161   4.945  1.6291  0.3827  0.4373
   81OL     H8S 3589   1.485   5.999   5.003  0.3359 -0.0933 -0.7291
   81OL     C19 3590   1.652   5.979   4.880 -0.0964 -0.6715 -0.4126
   81OL     H9R 3591   1.755   6.010   4.871 -0.2998  0.1891  0.0648
   81OL    C110 3592   1.607   5.867   4.826 -0.6747  0.9480 -0.1603
   81OL    H10R 3593   1.686   5.813   4.774 -1.9511  0.1188 -1.2925
   81OL    C111 3594   1.471   5.798   4.835  0.0332  0.1212  0.5314
   81OL    H11R 3595   1.448   5.799   4.942 -2.0703 -0.5145  0.1352
   81OL    H11S 3596   1.479   5.690   4.820  0.6447  0.3590 -1.0407
   81OL    C112 3597   1.354   5.854   4.750  0.2249 -0.3408 -0.2814
   81OL    H12R 3598   1.335   5.959   4.770 -1.8832 -0.4934 -1.2063
   81OL    H12S 3599   1.263   5.802   4.781 -1.5681  0.1206 -4.2450
   81OL    C113 3600   1.376   5.826   4.601  0.3816  0.0710  0.4114
   81OL    H13R 3601   1.468   5.877   4.573 -0.5475  1.6532  0.0665
   81OL    H13S 3602   1.290   5.870   4.549  0.4452  0.7494  0.8608
   81OL    C114 3603   1.375   5.675   4.573 -0.3086  0.0934  0.8730
   81OL    H14R 3604   1.275   5.643   4.600 -0.6505  0.6815  0.3252
   81OL    H14S 3605   1.450   5.625   4.636  1.5809 -0.2086 -1.4528
   81OL    C115 3606   1.405   5.647   4.423 -0.6499 -0.0418  0.2436
   81OL    H15R 3607   1.387   5.738   4.365 -0.1749  0.1591  0.3979
   81OL    H15S 3608   1.334   5.572   4.389 -1.9972  0.9417  0.8258
   81OL    C116 3609   1.549   5.598   4.391 -0.4920  0.5051 -0.4494
   81OL    H16R 3610   1.573   5.510   4.452 -0.8995 -1.2809 -2.7099
   81OL    H16S 3611   1.620   5.675   4.421 -0.3840 -0.0521  0.8154
   81OL    C117 3612   1.558   5.572   4.244 -0.2017 -0.3763  0.3833
   81OL    H17R 3613   1.662   5.583   4.210 -0.1126 -1.7986  0.1132
   81OL    H17S 3614   1.496   5.636   4.182 -0.8426 -1.3234  0.0127
   81OL    C118 3615   1.518   5.423   4.211  0.5779  0.7445 -0.3358
   81OL    H18R 3616   1.572   5.350   4.272  0.6353 -0.9134 -2.2479
   81OL    H18S 3617   1.525   5.401   4.104  0.1241 -1.2310  0.0024
   81OL    H18T 3618   1.417   5.413   4.250  0.8449  0.0670  0.2049
   82PA    C116 3619   1.989   7.203   4.269  0.1390 -0.2599  0.3002
   82PA    H16R 3620   2.098   7.200   4.280 -0.1561 -0.6190  4.3998
   82PA    H16S 3621   1.960   7.307   4.252 -0.3325  0.2370  3.5199
   82PA    H16T 3622   1.957   7.149   4.179 -2.8802  0.8596  0.6004
   82PA    C115 3623   1.936   7.136   4.393  0.4640  0.0382  0.4653
   82PA    H15R 3624   1.832   7.105   4.381  0.3178  0.7951 -0.3573
   82PA    H15S 3625   2.001   7.051   4.413 -0.0794 -0.5341 -0.1340
   82PA    C114 3626   1.942   7.238   4.512  0.3143  0.8063  0.9705
   82PA    H14R 3627   1.881   7.323   4.480 -1.1562 -0.0834  1.3740
   82PA    H14S 3628   1.899   7.192   4.601 -1.9548 -0.8181 -0.8439
   82PA    C113 3629   2.089   7.278   4.544  0.4134  0.0387 -0.6984
   82PA    H13R 3630   2.151   7.192   4.570  1.5638  0.8311 -0.7441
   82PA    H13S 3631   2.138   7.328   4.461  0.8127  0.4163 -0.2399
   82PA    C112 3632   2.083   7.378   4.668 -0.3080  0.0807 -0.7269
   82PA    H12R 3633   2.181   7.428   4.668  0.0197 -0.4671  1.6252
   82PA    H12S 3634   2.007   7.453   4.645 -0.1119 -0.2144 -2.5261
   82PA    C111 3635   2.049   7.318   4.806 -0.3898  0.0106  0.4396
   82PA    H11R 3636   1.951   7.270   4.800  0.0612 -1.2339  2.1408
   82PA    H11S 3637   2.121   7.238   4.826 -2.7314 -2.2890  0.1933
   82PA    C110 3638   2.062   7.412   4.930 -0.3695  0.0717  0.5050
   82PA    H10R 3639   2.041   7.359   5.023 -0.8789  2.6150  1.9153
   82PA    H10S 3640   2.159   7.463   4.931 -0.0618 -0.3384 -1.9842
   82PA     C19 3641   1.948   7.516   4.939  0.2688  0.4152 -0.4755
   82PA     H9R 3642   1.973   7.603   4.878  0.1152  1.7124  1.2442
   82PA     H9S 3643   1.864   7.463   4.895  0.4267 -0.2813  0.0324
   82PA     C18 3644   1.916   7.570   5.078 -0.0254  0.1972  0.3106
   82PA     H8R 3645   2.001   7.606   5.136 -0.4866  1.6683  0.0963
   82PA     H8S 3646   1.851   7.655   5.055 -2.1328 -1.4606 -0.2166
   82PA     C17 3647   1.860   7.458   5.169 -0.2714 -0.2413 -0.1561
   82PA     H7R 3648   1.788   7.399   5.112 -1.3132  0.1615  0.7141
   82PA     H7S 3649   1.931   7.389   5.215  1.8972  2.2155  0.4292
   82PA     C16 3650   1.781   7.514   5.298 -0.2130  0.1763  0.1560
   82PA     H6R 3651   1.846   7.585   5.349 -0.3517  0.1316  0.3944
   82PA     H6S 3652   1.707   7.586   5.262 -0.5490  0.5590  1.5610
   82PA     C15 3653   1.722   7.407   5.387 -0.1728  0.0117 -1.1180
   82PA     H5R 3654   1.698   7.444   5.487  1.2462  1.8852 -1.4145
   82PA     H5S 3655   1.629   7.368   5.347  0.7172 -1.3661 -1.9439
   82PA     C14 3656   1.829   7.300   5.430  0.3573 -0.3792 -0.1895
   82PA     H4R 3657   1.844   7.228   5.349  0.4053 -2.5143  1.6222
   82PA     H4S 3658   1.923   7.348   5.458 -0.2431 -0.8222  2.9618
   82PA     C13 3659   1.790   7.227   5.563  0.3741 -0.5468  0.2154
   82PA     H3R 3660   1.784   7.302   5.642  0.2125  0.1129 -0.4158
   82PA     H3S 3661   1.695   7.174   5.560  0.4682 -0.6667 -1.1284
   82PA     C12 3662   1.903   7.124   5.601  0.3095 -0.1271  0.0792
   82PA     H2R 3663   1.888   7.044   5.528 -0.6269 -0.4887  0.6586
   82PA     H2S 3664   2.004   7.167   5.596 -0.2521  1.1443 -0.6557
   83PC     C11 3665   1.889   7.059   5.741 -0.3952  0.0588  0.6941
   83PC     O12 3666   1.828   7.109   5.833  0.2398 -0.2309  0.5892
   83PC     O11 3667   1.974   6.948   5.742  0.4377  0.0840  0.2985
   83PC      C1 3668   1.963   6.871   5.864 -0.0025  0.4029  0.3978
   83PC      HR 3669   2.039   6.793   5.860 -1.4928 -1.0820 -3.2412
   83PC      HS 3670   1.984   6.942   5.945  0.5640  0.7131 -0.0090
   83PC      C2 3671   1.823   6.811   5.880  0.3941 -0.8240  0.1751
   83PC      HX 3672   1.752   6.892   5.895  2.1541  0.5054  1.7237
   83PC      C3 3673   1.800   6.725   6.002  0.1442 -0.0537  0.1256
   83PC      HA 3674   1.694   6.723   6.030  0.6356 -1.4956  2.0349
   83PC      HB 3675   1.830   6.622   5.982 -1.3817 -0.5180  0.0938
   83PC     O31 3676   1.883   6.777   6.109  0.2064 -0.4532  0.6762
   83PC     P31 3677   1.830   6.874   6.231 -0.4232  0.2187 -0.1430
   83PC     O32 3678   1.837   7.021   6.174 -0.0637 -0.1467  0.2831
   83PC     C31 3679   1.951   7.105   6.171 -0.0056 -0.0723 -0.1301
   83PC     H1A 3680   2.041   7.044   6.165  0.6184  0.8134  0.0887
   83PC     H1B 3681   1.947   7.165   6.080 -2.9320  0.2161  0.0725
   83PC     C32 3682   1.954   7.198   6.297  0.1187  0.1025 -0.6873
   83PC     H2A 3683   1.945   7.143   6.391  0.4233  1.7110  0.3080
   83PC     H2B 3684   2.054   7.242   6.298  0.9295 -1.6211 -1.2190
   83PC     N31 3685   1.863   7.314   6.292 -0.6284 -0.0620 -0.2726
   83PC     C33 3686   1.730   7.266   6.271  0.2830 -0.7794  0.0581
   83PC     H3A 3687   1.706   7.197   6.351 -1.5675  0.5489  0.7177
   83PC     H3B 3688   1.665   7.352   6.287 -0.9217 -1.8561  1.1099
   83PC     H3C 3689   1.729   7.219   6.172 -1.0490 -2.9124  1.0085
   83PC     C34 3690   1.872   7.393   6.415  0.1888  0.2524  0.0089
   83PC     H4A 3691   1.971   7.440   6.415  0.0017  0.6534 -0.3695
   83PC     H4B 3692   1.802   7.476   6.416  1.5961  1.5888 -2.0128
   83PC     H4C 3693   1.858   7.327   6.501 -1.2851 -0.5095 -0.7732
   83PC     C35 3694   1.911   7.409   6.180  0.3437  0.1618  0.4452
   83PC     H5A 3695   1.884   7.373   6.080  0.0593  0.2052  0.5043
   83PC     H5B 3696   2.017   7.433   6.183  0.9312 -1.6380 -2.1252
   83PC     H5C 3697   1.854   7.501   6.192  0.3746  0.0981  1.1128
   83PC     O33 3698   1.695   6.840   6.273  0.1865 -0.2955  0.2058
   83PC     O34 3699   1.937   6.868   6.332 -0.2535 -0.5911  0.5181
   83PC     O21 3700   1.798   6.720   5.776  0.3130  0.0532 -0.0121
   83PC     C21 3701   1.698   6.755   5.690 -0.0761  0.5543  0.5868
   83PC     O22 3702   1.665   6.868   5.665  0.1334  0.7535  0.1557
   84OL     C12 3703   1.651   6.638   5.608 -0.6253 -0.0532  0.5449
   84OL     H2R 3704   1.583   6.584   5.676 -1.1339  1.5075  1.3376
   84OL     H2S 3705   1.739   6.585   5.574 -0.3434  1.5291 -1.3610
   84OL     C13 3706   1.565   6.672   5.483  0.0544 -0.2528 -0.0640
   84OL     H3R 3707   1.616   6.749   5.424  1.6876 -1.6107 -0.4969
   84OL     H3S 3708   1.484   6.732   5.527  0.4248  0.1876  0.0296
   84OL     C14 3709   1.527   6.549   5.405 -0.4604  0.6493 -0.4367
   84OL     H4R 3710   1.449   6.488   5.452 -0.6667 -2.6472 -4.4609
   84OL     H4S 3711   1.616   6.485   5.404 -0.0216  1.2424 -1.7675
   84OL     C15 3712   1.482   6.580   5.262  0.5466 -0.3571  0.6614
   84OL     H5R 3713   1.466   6.490   5.202 -1.1454  0.8460 -0.8066
   84OL     H5S 3714   1.559   6.637   5.209  0.8954  0.0532  1.5830
   84OL     C16 3715   1.359   6.679   5.263  0.0265  0.0631 -0.8886
   84OL     H6R 3716   1.406   6.773   5.293  0.3692  0.4606 -2.5491
   84OL     H6S 3717   1.296   6.653   5.348  0.4156 -1.0509 -0.9174
   84OL     C17 3718   1.287   6.695   5.130 -0.1959  0.5145 -0.4133
   84OL     H7R 3719   1.355   6.679   5.046 -0.1340 -2.1519  0.0644
   84OL     H7S 3720   1.248   6.797   5.125  0.6708  0.8416 -0.6528
   84OL     C18 3721   1.178   6.580   5.131 -0.7286 -0.1987 -0.1622
   84OL     H8R 3722   1.101   6.594   5.208  0.2193 -0.6191  0.8849
   84OL     H8S 3723   1.229   6.486   5.152  1.5227  0.8807 -0.4767
   84OL     C19 3724   1.119   6.579   4.993  0.3124 -0.2767 -0.1569
   84OL     H9R 3725   1.034   6.647   4.991  1.1465  0.9181  1.7797
   84OL    C110 3726   1.166   6.519   4.880  0.1003  0.1189 -0.5040
   84OL    H10R 3727   1.100   6.529   4.793 -3.0224 -2.6139  1.3209
   84OL    C111 3728   1.284   6.441   4.859 -0.7430  0.5820  1.1792
   84OL    H11R 3729   1.257   6.348   4.809 -0.8799  0.6393  1.1451
   84OL    H11S 3730   1.333   6.410   4.952  2.6104  2.8484  0.3690
   84OL    C112 3731   1.389   6.497   4.761  0.6407 -0.1699 -0.1661
   84OL    H12R 3732   1.483   6.457   4.799 -0.6411 -0.2138  3.3367
   84OL    H12S 3733   1.400   6.606   4.761  0.9698 -0.1082 -2.9852
   84OL    C113 3734   1.375   6.442   4.617 -0.2534  0.3212 -0.8230
   84OL    H13R 3735   1.388   6.334   4.624  2.2652  0.5698 -0.8045
   84OL    H13S 3736   1.467   6.465   4.565  0.2009 -0.0469 -0.1991
   84OL    C114 3737   1.262   6.501   4.527 -0.2432  0.3400  0.8980
   84OL    H14R 3738   1.284   6.607   4.518 -1.1445  0.5374  0.9664
   84OL    H14S 3739   1.161   6.495   4.568 -1.3836  0.1405 -1.7349
   84OL    C115 3740   1.261   6.448   4.385 -0.4039 -0.5693 -0.2804
   84OL    H15R 3741   1.215   6.349   4.387 -2.0014  0.1507 -0.0867
   84OL    H15S 3742   1.358   6.436   4.336  0.1168 -1.7074  0.9393
   84OL    C116 3743   1.159   6.524   4.300  1.1857 -0.3679  0.1710
   84OL    H16R 3744   1.204   6.622   4.287  0.6332 -0.2768 -1.3295
   84OL    H16S 3745   1.065   6.539   4.353  1.5670 -0.8198  0.9983
   84OL    C117 3746   1.133   6.478   4.157  0.0959  0.1506  0.1801
   84OL    H17R 3747   1.105   6.373   4.145 -0.3328  0.1892  0.8022
   84OL    H17S 3748   1.226   6.498   4.104  0.4089  0.6946  0.9078
   84OL    C118 3749   1.020   6.556   4.084  0.2538  0.1446 -0.1733
   84OL    H18R 3750   0.944   6.550   4.162  1.3079  0.1463  0.8896
   84OL    H18S 3751   0.991   6.499   3.995 -2.4620 -1.1281  1.4121
   84OL    H18T 3752   1.045   6.661   4.074  0.1775  0.0978 -0.9934
   85PA    C116 3753   3.044   2.104   4.439 -0.5718 -0.5377 -0.3075
   85PA    H16R 3754   2.935   2.106   4.441 -0.6055  0.8877 -1.6687
   85PA    H16S 3755   3.067   2.037   4.356 -0.4405 -2.7412  1.4234
   85PA    H16T 3756   3.088   2.198   4.405 -0.5852 -1.3818 -2.8783
   85PA    C115 3757   3.120   2.067   4.565 -0.9005  0.2491  0.9313
   85PA    H15R 3758   3.229   2.080   4.566 -0.6382 -0.6554 -2.5552
   85PA    H15S 3759   3.079   2.110   4.656  0.7070  0.6747  1.4921
   85PA    C114 3760   3.102   1.916   4.599 -0.3797 -0.3177  0.8857
   85PA    H14R 3761   2.996   1.890   4.607 -0.8842  1.5151  0.6728
   85PA    H14S 3762   3.135   1.867   4.508 -0.6410 -0.5834  0.9325
   85PA    C113 3763   3.184   1.866   4.719  0.3384 -0.3366  0.0468
   85PA    H13R 3764   3.286   1.905   4.715  0.4663 -0.6248  0.4419
   85PA    H13S 3765   3.132   1.915   4.801  0.3267  0.9221 -0.6931
   85PA    C112 3766   3.178   1.717   4.747 -0.3407 -0.1499 -0.1695
   85PA    H12R 3767   3.241   1.689   4.831 -0.7188  1.2024  0.6068
   85PA    H12S 3768   3.072   1.696   4.765 -0.4552 -0.3145 -0.9903
   85PA    C111 3769   3.215   1.624   4.634  0.3668 -0.6656 -0.6515
   85PA    H11R 3770   3.150   1.644   4.549 -2.3247 -2.8334  0.7440
   85PA    H11S 3771   3.312   1.662   4.600 -0.7263  1.1893 -1.9041
   85PA    C110 3772   3.232   1.475   4.675 -0.4982  0.0803 -0.4890
   85PA    H10R 3773   3.230   1.414   4.584 -1.4138 -0.7017  0.0466
   85PA    H10S 3774   3.328   1.482   4.727 -0.6625  1.0296 -0.2960
   85PA     C19 3775   3.136   1.417   4.782  1.3428 -0.6785 -0.4729
   85PA     H9R 3776   3.191   1.341   4.839 -1.0907 -1.3572  1.1216
   85PA     H9S 3777   3.102   1.490   4.855 -0.3647 -1.5554 -0.3406
   85PA     C18 3778   3.014   1.360   4.708  0.5385  0.4864  0.0210
   85PA     H8R 3779   2.949   1.437   4.667 -2.8680 -2.0296  0.2638
   85PA     H8S 3780   3.050   1.294   4.628 -1.0414 -0.5050  0.0818
   85PA     C17 3781   2.920   1.292   4.809  0.1912  0.3697  0.4219
   85PA     H7R 3782   2.840   1.246   4.751 -2.9269  3.5635  1.7959
   85PA     H7S 3783   2.973   1.218   4.868  0.1323  0.4699  0.6011
   85PA     C16 3784   2.857   1.379   4.913 -0.3093 -0.4605 -0.4316
   85PA     H6R 3785   2.940   1.415   4.974 -0.3659 -1.8270  0.5150
   85PA     H6S 3786   2.808   1.466   4.870  0.4066  1.0036  1.5574
   85PA     C15 3787   2.774   1.294   5.013  0.0378 -0.0374  0.1858
   85PA     H5R 3788   2.683   1.265   4.959  0.5783 -1.9228  0.2205
   85PA     H5S 3789   2.822   1.202   5.047 -0.5413  0.5717  2.8868
   85PA     C14 3790   2.745   1.373   5.141  0.2827 -0.2213 -0.2682
   85PA     H4R 3791   2.727   1.478   5.120  1.8240  0.5327  1.8286
   85PA     H4S 3792   2.652   1.335   5.183 -0.9934 -1.2558 -3.6918
   85PA     C13 3793   2.853   1.361   5.257 -0.5505  0.4617 -0.5789
   85PA     H3R 3794   2.834   1.273   5.318 -0.6776  2.6042  2.7325
   85PA     H3S 3795   2.952   1.358   5.210 -0.2902  2.2996 -0.2148
   85PA     C12 3796   2.831   1.472   5.359 -0.8689 -0.6231 -0.0286
   85PA     H2R 3797   2.864   1.564   5.310  0.6068 -1.1863 -0.1230
   85PA     H2S 3798   2.723   1.482   5.372 -0.9609 -1.0966 -0.4122
   86PC     C11 3799   2.910   1.464   5.490  0.1249  0.1507  0.2832
   86PC     O12 3800   3.027   1.495   5.505  0.0621  0.1399  0.0015
   86PC     O11 3801   2.845   1.410   5.593  0.4118  0.4715 -0.4158
   86PC      C1 3802   2.915   1.405   5.722  0.2210  0.0931 -0.2257
   86PC      HR 3803   2.991   1.481   5.740  1.0718 -0.8696  0.3397
   86PC      HS 3804   2.845   1.424   5.804  2.3435 -1.2350  2.0301
   86PC      C2 3805   2.976   1.261   5.742  0.2020 -0.7148  0.3868
   86PC      HX 3806   2.901   1.184   5.724  0.0264 -0.5552  0.4302
   86PC      C3 3807   3.035   1.253   5.890 -0.5242 -0.3631  0.0085
   86PC      HA 3808   2.965   1.239   5.973 -0.4162  1.8169  0.5157
   86PC      HB 3809   3.108   1.172   5.879 -1.0361 -0.8728  0.3097
   86PC     O31 3810   3.117   1.371   5.916 -0.6016 -0.1419  0.1171
   86PC     P31 3811   3.140   1.434   6.057 -0.5391 -0.2765  0.3846
   86PC     O32 3812   3.262   1.361   6.113  0.1044  0.1275  0.3228
   86PC     C31 3813   3.394   1.380   6.056 -0.6222 -0.8864  0.1185
   86PC     H1A 3814   3.386   1.419   5.955  0.0692  1.2213  0.8193
   86PC     H1B 3815   3.441   1.457   6.118 -4.6425  1.0487  1.0704
   86PC     C32 3816   3.467   1.236   6.071  0.0704 -0.0316 -0.2083
   86PC     H2A 3817   3.408   1.159   6.021 -1.7763  0.2997  1.3361
   86PC     H2B 3818   3.567   1.237   6.028 -0.4281  2.2160 -1.4628
   86PC     N31 3819   3.492   1.188   6.205 -0.3483  0.7164  0.2075
   86PC     C33 3820   3.580   1.069   6.199  1.0591  0.3093 -0.0533
   86PC     H3A 3821   3.597   1.030   6.300  0.5156  1.0820  0.3465
   86PC     H3B 3822   3.523   0.991   6.148  1.6845  0.3581 -0.8336
   86PC     H3C 3823   3.675   1.088   6.149  2.1424  0.1528  1.8158
   86PC     C34 3824   3.557   1.285   6.288  0.0284 -0.5274 -0.5464
   86PC     H4A 3825   3.570   1.238   6.385 -0.4134 -0.5250 -0.4856
   86PC     H4B 3826   3.654   1.310   6.245 -0.8483  1.5606 -1.4394
   86PC     H4C 3827   3.498   1.376   6.294  1.9612  0.9359 -2.1171
   86PC     C35 3828   3.365   1.137   6.268 -0.5295 -0.5478  0.6016
   86PC     H5A 3829   3.396   1.069   6.348  0.7022 -1.9188 -0.9686
   86PC     H5B 3830   3.302   1.084   6.197 -0.4883  2.8150 -2.2159
   86PC     H5C 3831   3.307   1.222   6.303  1.7321  1.1028  0.5584
   86PC     O33 3832   3.180   1.577   6.044  0.2828  0.3160 -0.3321
   86PC     O34 3833   3.027   1.400   6.143 -0.0484  0.3647  0.7819
   86PC     O21 3834   3.089   1.243   5.648  0.2282 -0.2873 -0.0953
   86PC     C21 3835   3.061   1.167   5.540  0.4488 -0.1168 -0.0536
   86PC     O22 3836   2.947   1.146   5.504  0.3682  0.0571 -0.0891
   87OL     C12 3837   3.176   1.119   5.447  0.2257 -0.3727  0.3832
   87OL     H2R 3838   3.138   1.031   5.396 -0.8124  1.0341 -1.4109
   87OL     H2S 3839   3.267   1.100   5.504  0.8526  0.5951 -0.2687
   87OL     C13 3840   3.203   1.231   5.340 -0.0022  0.8502  0.3683
   87OL     H3R 3841   3.206   1.332   5.384  0.8883  0.6354  0.8405
   87OL     H3S 3842   3.121   1.227   5.269  0.8791 -1.6910 -0.6030
   87OL     C14 3843   3.329   1.196   5.259  0.3584 -0.0449 -0.4131
   87OL     H4R 3844   3.322   1.097   5.215  0.5973 -0.2193 -0.0623
   87OL     H4S 3845   3.423   1.204   5.316 -0.7105  0.8978  1.3205
   87OL     C15 3846   3.334   1.301   5.138 -0.3100  0.1765  0.0054
   87OL     H5R 3847   3.335   1.405   5.173 -1.1697 -0.1619  1.1057
   87OL     H5S 3848   3.241   1.286   5.083 -0.3901 -0.1165  0.2188
   87OL     C16 3849   3.450   1.282   5.044 -0.0472  0.4644 -0.4487
   87OL     H6R 3850   3.542   1.288   5.103 -0.2117 -2.1958  0.1948
   87OL     H6S 3851   3.436   1.361   4.969 -0.4352 -0.2866 -1.1715
   87OL     C17 3852   3.446   1.153   4.962  0.2819 -0.8960 -0.5230
   87OL     H7R 3853   3.343   1.141   4.926 -0.0824  0.9022 -0.1640
   87OL     H7S 3854   3.490   1.079   5.029 -1.1958 -1.5677 -0.2490
   87OL     C18 3855   3.538   1.146   4.840  0.1368  0.3685 -0.0432
   87OL     H8R 3856   3.537   1.045   4.800  1.1293  0.6201 -0.7264
   87OL     H8S 3857   3.640   1.160   4.876  1.0589 -1.4550 -1.8003
   87OL     C19 3858   3.521   1.253   4.733  1.4430  0.4250  0.7516
   87OL     H9R 3859   3.550   1.345   4.784 -0.3810 -0.4760  3.6673
   87OL    C110 3860   3.493   1.240   4.606 -0.3409  0.4044  0.4287
   87OL    H10R 3861   3.477   1.324   4.540 -2.1253 -0.4002 -0.2206
   87OL    C111 3862   3.453   1.112   4.542  0.3688 -0.2579  1.1452
   87OL    H11R 3863   3.434   1.039   4.621  2.1482 -1.8837  0.1479
   87OL    H11S 3864   3.542   1.075   4.491  0.0501  0.1622  0.2530
   87OL    C112 3865   3.339   1.143   4.442 -0.6097  0.3374  0.1253
   87OL    H12R 3866   3.370   1.219   4.370 -2.4328  1.1983  0.1855
   87OL    H12S 3867   3.252   1.186   4.493 -1.9883 -1.3953 -0.6756
   87OL    C113 3868   3.305   1.014   4.365  0.5883 -0.5389  0.2618
   87OL    H13R 3869   3.229   0.961   4.422 -0.2775  1.7188  1.3258
   87OL    H13S 3870   3.393   0.950   4.358  0.8391 -0.3251  1.2175
   87OL    C114 3871   3.238   1.055   4.231 -0.1504  0.1886  0.2917
   87OL    H14R 3872   3.293   1.133   4.179  0.9666  0.5280  1.9015
   87OL    H14S 3873   3.138   1.087   4.262 -0.0709 -1.1976  2.2108
   87OL    C115 3874   3.226   0.943   4.131  0.8850  0.0212  0.7617
   87OL    H15R 3875   3.166   0.865   4.178 -1.2838  2.0146  1.5367
   87OL    H15S 3876   3.319   0.894   4.104  0.8324  1.1384 -1.6904
   87OL    C116 3877   3.156   0.994   3.997 -0.5767  0.1201 -0.0814
   87OL    H16R 3878   3.064   1.046   4.025 -0.6539 -0.5546  0.9949
   87OL    H16S 3879   3.132   0.898   3.950 -1.7906  0.6056 -0.5036
   87OL    C117 3880   3.242   1.074   3.895  0.4610 -0.4875  0.8985
   87OL    H17R 3881   3.329   1.020   3.857  1.4802 -0.6553  3.3388
   87OL    H17S 3882   3.272   1.168   3.941  1.1400  0.1823 -0.8291
   87OL    C118 3883   3.134   1.118   3.787  0.2278  0.8168  0.0365
   87OL    H18R 3884   3.101   1.031   3.729  1.2618  0.2365  0.2918
   87OL    H18S 3885   3.199   1.178   3.724  0.8886  0.7741  0.6598
   87OL    H18T 3886   3.055   1.178   3.833 -1.7573 -1.6614  0.1159
   88PA    C116 3887   0.898  -2.743   3.852 -0.1423  0.5067  1.2839
   88PA    H16R 3888   0.957  -2.723   3.763  0.4051 -1.0785  1.2574
   88PA    H16S 3889   0.791  -2.725   3.842 -0.1072  0.3633  0.5971
   88PA    H16T 3890   0.903  -2.852   3.864 -3.4501  0.3057  1.9500
   88PA    C115 3891   0.960  -2.655   3.960 -0.1475 -0.3907  0.3231
   88PA    H15R 3892   0.908  -2.672   4.055 -2.8416  1.3590 -0.7086
   88PA    H15S 3893   1.065  -2.683   3.970  0.4291  1.8188  1.0923
   88PA    C114 3894   0.947  -2.509   3.917 -0.0320  0.8838  0.2882
   88PA    H14R 3895   0.976  -2.504   3.812 -1.6582 -0.3372 -0.2695
   88PA    H14S 3896   0.842  -2.479   3.928 -1.7075 -3.0890 -2.4725
   88PA    C113 3897   1.051  -2.434   3.999 -0.5928 -0.1354  0.0283
   88PA    H13R 3898   1.154  -2.460   3.972 -0.5914  0.3719 -0.4915
   88PA    H13S 3899   1.039  -2.331   3.965 -1.4123 -0.1441  0.2718
   88PA    C112 3900   1.042  -2.430   4.151  0.0087 -0.3865  0.1589
   88PA    H12R 3901   0.936  -2.413   4.172  0.0672 -0.2209  0.3255
   88PA    H12S 3902   1.075  -2.528   4.188  1.8760  0.3221  0.4532
   88PA    C111 3903   1.137  -2.331   4.222  0.7708 -0.9422  0.3879
   88PA    H11R 3904   1.235  -2.328   4.174  1.1960  0.3448  1.2824
   88PA    H11S 3905   1.092  -2.234   4.202  1.9896 -0.5924 -0.8272
   88PA    C110 3906   1.148  -2.344   4.374 -0.5207 -0.3868  0.3077
   88PA    H10R 3907   1.197  -2.438   4.399  1.1439 -0.0108 -1.3267
   88PA    H10S 3908   1.215  -2.264   4.406 -1.4986  0.5875  0.0100
   88PA     C19 3909   1.011  -2.331   4.436  0.3708 -0.1996 -0.1325
   88PA     H9R 3910   0.944  -2.255   4.396 -0.3315  0.2117  1.7480
   88PA     H9S 3911   0.955  -2.418   4.400  1.0164  0.0402 -1.8296
   88PA     C18 3912   1.029  -2.318   4.585 -0.3955 -0.4705  0.1177
   88PA     H8R 3913   1.078  -2.408   4.625 -0.6432  0.0478  1.6381
   88PA     H8S 3914   1.093  -2.231   4.603 -1.4515  0.4714 -0.5519
   88PA     C17 3915   0.901  -2.306   4.670 -0.2630  0.0937 -0.0654
   88PA     H7R 3916   0.845  -2.215   4.651  2.1795  1.1542 -2.6810
   88PA     H7S 3917   0.838  -2.395   4.658  0.4784 -0.4357 -0.0695
   88PA     C16 3918   0.947  -2.311   4.818  0.1628 -0.5073 -1.0145
   88PA     H6R 3919   0.877  -2.369   4.878  0.5997  0.7868  0.8540
   88PA     H6S 3920   1.046  -2.355   4.832 -0.9215 -2.1707  2.9467
   88PA     C15 3921   0.954  -2.177   4.887 -0.3270 -0.5766  0.3893
   88PA     H5R 3922   1.009  -2.192   4.980  0.1360  1.0964  0.4150
   88PA     H5S 3923   1.027  -2.121   4.829 -0.9585 -0.4285 -0.2746
   88PA     C14 3924   0.817  -2.104   4.903  0.4061 -0.9025 -0.2606
   88PA     H4R 3925   0.778  -2.075   4.805  0.7869  2.1521  0.3857
   88PA     H4S 3926   0.737  -2.170   4.935  1.0856 -1.6387 -0.0582
   88PA     C13 3927   0.830  -1.984   4.998  0.1586 -0.0868 -1.0188
   88PA     H3R 3928   0.929  -1.939   5.003  0.2658 -0.3384 -0.8482
   88PA     H3S 3929   0.753  -1.910   4.972 -0.3484 -1.3145 -3.2613
   88PA     C12 3930   0.789  -2.029   5.139 -0.1630  0.6745 -0.8593
   88PA     H2R 3931   0.680  -2.027   5.144 -0.1162  1.4220  0.1283
   88PA     H2S 3932   0.836  -2.127   5.150  1.2482  1.4683  0.6916
   89PC     C11 3933   0.850  -1.947   5.249 -0.5931  0.4838  0.9712
   89PC     O12 3934   0.783  -1.875   5.316 -0.0549  0.3985 -0.2305
   89PC     O11 3935   0.985  -1.962   5.261  0.6063  0.5578 -0.5921
   89PC      C1 3936   1.046  -1.886   5.374  0.2056 -0.0555  0.1716
   89PC      HR 3937   1.009  -1.784   5.380  0.7451  0.1282  0.4952
   89PC      HS 3938   1.015  -1.925   5.472  1.7860 -0.8443  0.3927
   89PC      C2 3939   1.193  -1.900   5.364 -0.2291 -0.4667  0.5378
   89PC      HX 3940   1.229  -2.003   5.380  1.2259 -0.5236 -2.3421
   89PC      C3 3941   1.263  -1.797   5.457  0.4521  0.5687 -0.7581
   89PC      HA 3942   1.372  -1.792   5.448  0.7434  0.7064  1.9326
   89PC      HB 3943   1.229  -1.697   5.432 -0.0120 -0.4227 -4.6954
   89PC     O31 3944   1.250  -1.827   5.599 -0.1787  0.2631  0.2174
   89PC     P31 3945   1.335  -1.942   5.666 -0.0354  0.3411  0.4587
   89PC     O32 3946   1.484  -1.879   5.671 -0.2794 -0.0668 -0.1797
   89PC     C31 3947   1.522  -1.784   5.773  0.0723 -0.3176 -0.0751
   89PC     H1A 3948   1.535  -1.686   5.727 -2.2137 -0.3909 -1.0273
   89PC     H1B 3949   1.451  -1.769   5.855 -0.0342  0.3442 -0.2804
   89PC     C32 3950   1.642  -1.853   5.850 -0.4913  0.0842  0.0548
   89PC     H2A 3951   1.604  -1.952   5.871 -1.7421  0.4842 -0.2634
   89PC     H2B 3952   1.734  -1.866   5.793 -1.2390  0.0873 -1.1824
   89PC     N31 3953   1.689  -1.813   5.985 -0.3276 -0.0653  0.5668
   89PC     C33 3954   1.590  -1.812   6.090  0.1496  0.0257  0.1967
   89PC     H3A 3955   1.505  -1.750   6.062  1.0857  1.1607 -0.1910
   89PC     H3B 3956   1.555  -1.915   6.105  0.6933 -0.1862  0.0223
   89PC     H3C 3957   1.635  -1.784   6.185  2.1553 -2.8229  0.2159
   89PC     C34 3958   1.787  -1.925   6.023  0.8651  0.1149  0.1873
   89PC     H4A 3959   1.859  -1.940   5.943  0.7513  1.7383 -0.2569
   89PC     H4B 3960   1.841  -1.903   6.115  3.0034 -1.3676 -0.6436
   89PC     H4C 3961   1.727  -2.014   6.044 -0.7751  0.9251 -0.8187
   89PC     C35 3962   1.771  -1.686   5.986  0.4918 -0.4617  0.7681
   89PC     H5A 3963   1.835  -1.702   5.900 -2.0317  0.1827 -1.3341
   89PC     H5B 3964   1.829  -1.663   6.076 -0.2831 -0.0467  1.1761
   89PC     H5C 3965   1.704  -1.604   5.960  1.0054 -0.5652 -0.9184
   89PC     O33 3966   1.284  -1.968   5.804  0.0440 -0.2421 -0.2843
   89PC     O34 3967   1.340  -2.051   5.570 -0.3193  0.2233  0.4259
   89PC     O21 3968   1.235  -1.852   5.231 -0.0780 -0.5787  0.0694
   89PC     C21 3969   1.261  -1.945   5.136  1.2402  0.0440 -0.2083
   89PC     O22 3970   1.249  -2.068   5.149  0.6332  0.3460 -0.2896
   90OL     C12 3971   1.305  -1.886   5.010 -0.3182 -0.7304 -0.1272
   90OL     H2R 3972   1.406  -1.851   5.031 -0.4907 -1.1568  1.6117
   90OL     H2S 3973   1.254  -1.790   4.995  0.9835  0.0048 -0.0553
   90OL     C13 3974   1.272  -1.973   4.887  0.6150 -0.2933 -0.1578
   90OL     H3R 3975   1.165  -1.962   4.867  0.9743 -0.1465 -2.2999
   90OL     H3S 3976   1.306  -2.073   4.915  2.7948  0.4174 -0.0949
   90OL     C14 3977   1.347  -1.923   4.760  0.4697  0.7356 -0.4172
   90OL     H4R 3978   1.452  -1.904   4.781  0.5655 -0.2913  0.0536
   90OL     H4S 3979   1.308  -1.822   4.745 -2.0119 -0.2662 -1.2443
   90OL     C15 3980   1.330  -2.012   4.633  0.4331 -0.5954 -0.3994
   90OL     H5R 3981   1.224  -2.015   4.607  0.6619 -1.4518 -1.2593
   90OL     H5S 3982   1.347  -2.119   4.645  0.8435 -0.4950 -0.0468
   90OL     C16 3983   1.400  -1.963   4.506 -0.0853 -0.7107  0.6077
   90OL     H6R 3984   1.506  -1.969   4.529  0.0904  2.1421  0.8972
   90OL     H6S 3985   1.372  -1.858   4.495 -0.0998 -0.8297 -0.7805
   90OL     C17 3986   1.367  -2.046   4.384  0.2672 -0.2040  0.2764
   90OL     H7R 3987   1.258  -2.040   4.380  0.2063 -0.5404  1.3557
   90OL     H7S 3988   1.391  -2.149   4.412 -0.2933  0.1428  2.1357
   90OL     C18 3989   1.437  -1.999   4.258  0.1883  0.1825 -0.4382
   90OL     H8R 3990   1.545  -1.989   4.272  0.1560  2.6085 -1.3912
   90OL     H8S 3991   1.401  -1.899   4.231 -0.3333  0.0872 -0.1135
   90OL     C19 3992   1.425  -2.102   4.152  0.1445 -0.1806 -0.2400
   90OL     H9R 3993   1.477  -2.195   4.175 -1.4208 -0.7879  1.0200
   90OL    C110 3994   1.351  -2.101   4.043 -0.1450  0.1651  0.4602
   90OL    H10R 3995   1.341  -2.187   3.978 -1.5316  2.2379 -2.2611
   90OL    C111 3996   1.275  -1.974   3.991 -0.2746 -0.7330 -0.9024
   90OL    H11R 3997   1.335  -1.883   3.993 -0.5149 -0.5797  0.0224
   90OL    H11S 3998   1.193  -1.958   4.061 -0.2227  0.9157 -1.1969
   90OL    C112 3999   1.222  -1.982   3.850  0.3138  0.1940 -0.0696
   90OL    H12R 4000   1.150  -2.059   3.879  0.1426 -0.3572 -1.8167
   90OL    H12S 4001   1.302  -2.022   3.788 -0.6569 -0.2156 -1.0928
   90OL    C113 4002   1.153  -1.862   3.776 -0.3727 -0.2731 -0.5338
   90OL    H13R 4003   1.231  -1.787   3.762 -0.4362  0.3092  1.7948
   90OL    H13S 4004   1.079  -1.814   3.839 -1.1967 -0.6687 -1.1748
   90OL    C114 4005   1.076  -1.894   3.641 -0.5722  0.2240  0.2611
   90OL    H14R 4006   1.047  -1.794   3.610  0.8714  0.2565 -1.1413
   90OL    H14S 4007   0.990  -1.960   3.655  0.5310 -0.8643  2.3433
   90OL    C115 4008   1.181  -1.945   3.539 -0.6628 -0.3852 -0.1191
   90OL    H15R 4009   1.137  -1.962   3.440 -3.3807  0.9625  0.7553
   90OL    H15S 4010   1.214  -2.043   3.573 -1.6038 -0.3424  1.0026
   90OL    C116 4011   1.310  -1.849   3.515 -0.7664  0.2077  0.1034
   90OL    H16R 4012   1.380  -1.906   3.454 -0.6603 -0.2686  0.6621
   90OL    H16S 4013   1.363  -1.847   3.610  2.3458  0.2112 -1.4983
   90OL    C117 4014   1.284  -1.712   3.458  0.8603 -0.5708 -0.2974
   90OL    H17R 4015   1.369  -1.643   3.458  0.0256  0.5059 -1.5317
   90OL    H17S 4016   1.217  -1.653   3.521  1.8452  0.9697 -0.6297
   90OL    C118 4017   1.225  -1.718   3.320 -0.1682 -0.3126  0.3121
   90OL    H18R 4018   1.306  -1.736   3.249  0.4087  1.2950  0.5187
   90OL    H18S 4019   1.175  -1.623   3.301 -2.3407 -1.1701  1.4587
   90OL    H18T 4020   1.154  -1.799   3.304  1.6613 -1.8508 -0.3687
   91PA    C116 4021   3.013   5.311   4.205  0.4727 -0.5012  1.0918
   91PA    H16R 4022   3.082   5.286   4.124  1.0824 -0.3170  1.5438
   91PA    H16S 4023   2.908   5.289   4.183  0.7475  0.2480 -1.3377
   91PA    H16T 4024   3.053   5.241   4.278 -0.0893 -1.0097  0.9192
   91PA    C115 4025   3.040   5.452   4.259 -1.0849 -0.8388 -0.0776
   91PA    H15R 4026   3.144   5.455   4.291 -0.1918  1.0901 -2.7796
   91PA    H15S 4027   3.033   5.521   4.175  0.9180 -1.3301 -0.7173
   91PA    C114 4028   2.943   5.481   4.369 -0.6469 -0.4261 -0.6066
   91PA    H14R 4029   2.843   5.449   4.343 -1.0283  0.8119 -0.7514
   91PA    H14S 4030   2.975   5.425   4.457 -0.1562  0.7477 -0.0122
   91PA    C113 4031   2.931   5.629   4.409  0.2596  0.2042  0.8242
   91PA    H13R 4032   2.905   5.696   4.326 -0.1128  0.4463  1.1307
   91PA    H13S 4033   2.850   5.635   4.481  0.6023  0.4973  1.1896
   91PA    C112 4034   3.051   5.692   4.479  0.4009  0.5494 -0.3706
   91PA    H12R 4035   3.133   5.671   4.410 -0.9226 -3.6395 -0.9773
   91PA    H12S 4036   3.025   5.798   4.492  1.4702  0.7534  0.1850
   91PA    C111 4037   3.079   5.633   4.622  0.2962 -0.0889 -0.0014
   91PA    H11R 4038   2.988   5.654   4.679  0.1652 -0.3398 -0.1185
   91PA    H11S 4039   3.098   5.526   4.620 -1.3906 -0.4843  1.4798
   91PA    C110 4040   3.196   5.710   4.686 -0.5009  0.2646 -0.4067
   91PA    H10R 4041   3.276   5.713   4.611 -0.4126  0.7267 -0.2984
   91PA    H10S 4042   3.176   5.816   4.699  0.2313  0.5522 -1.5511
   91PA     C19 4043   3.267   5.648   4.810  0.3924  0.6895  0.2055
   91PA     H9R 4044   3.197   5.610   4.884  0.3958 -0.1024 -0.1886
   91PA     H9S 4045   3.323   5.560   4.777  1.9786  2.1619 -1.2467
   91PA     C18 4046   3.351   5.754   4.878  0.3949  0.5507  0.6450
   91PA     H8R 4047   3.413   5.797   4.799  0.3117  0.9379  0.7880
   91PA     H8S 4048   3.285   5.835   4.910  0.5042  0.4634  1.0927
   91PA     C17 4049   3.438   5.708   4.992  0.2270  0.1554  0.9251
   91PA     H7R 4050   3.491   5.625   4.946 -0.2022  1.6793 -2.7174
   91PA     H7S 4051   3.513   5.781   5.023  1.1511 -1.0543  1.5808
   91PA     C16 4052   3.365   5.671   5.121  0.0393 -0.0541  0.9989
   91PA     H6R 4053   3.333   5.764   5.170 -0.8628  0.0697  0.1929
   91PA     H6S 4054   3.273   5.614   5.108 -0.1862  0.2055  1.4314
   91PA     C15 4055   3.455   5.600   5.224 -0.5169 -0.3386 -0.0862
   91PA     H5R 4056   3.490   5.508   5.178 -0.5082  0.2151 -1.2280
   91PA     H5S 4057   3.545   5.661   5.235  0.1293 -1.0975 -1.0335
   91PA     C14 4058   3.376   5.569   5.356 -0.1179 -0.4987  0.0249
   91PA     H4R 4059   3.269   5.580   5.336  0.4925  0.4634 -3.3864
   91PA     H4S 4060   3.397   5.464   5.379 -1.4858 -0.8025  0.0073
   91PA     C13 4061   3.409   5.669   5.470  0.1485  0.2597 -0.4482
   91PA     H3R 4062   3.516   5.671   5.492 -0.1212  1.3654  0.9546
   91PA     H3S 4063   3.382   5.772   5.447  0.0278  0.2530 -0.3383
   91PA     C12 4064   3.336   5.634   5.606  0.1948 -0.6461  0.7622
   91PA     H2R 4065   3.229   5.654   5.598  0.1252 -1.7148 -3.0670
   91PA     H2S 4066   3.357   5.529   5.623 -0.3381 -0.4378  3.0052
   92PC     C11 4067   3.387   5.724   5.713  0.0703  0.4995 -0.0353
   92PC     O12 4068   3.403   5.671   5.821 -0.4888 -0.7193  0.1073
   92PC     O11 4069   3.403   5.851   5.678  0.2451 -0.0291 -0.3140
   92PC      C1 4070   3.472   5.929   5.775  0.0135 -0.2073  0.2795
   92PC      HR 4071   3.422   5.934   5.873 -0.1845  2.5264  0.1359
   92PC      HS 4072   3.577   5.904   5.792  1.0242  3.7493  1.1728
   92PC      C2 4073   3.489   6.074   5.718 -0.1086  0.0603  0.6474
   92PC      HX 4074   3.557   6.142   5.770 -1.6761  2.6215 -0.4744
   92PC      C3 4075   3.355   6.144   5.717  0.0215 -0.2412  0.1056
   92PC      HA 4076   3.357   6.226   5.645 -0.4437 -0.6603 -0.3936
   92PC      HB 4077   3.282   6.067   5.693  1.2856 -0.8674 -1.9976
   92PC     O31 4078   3.321   6.187   5.850 -0.2034  0.1564 -0.2144
   92PC     P31 4079   3.352   6.338   5.897 -0.2848  0.3977 -0.1281
   92PC     O32 4080   3.235   6.418   5.826  0.1962  0.0887 -0.5115
   92PC     C31 4081   3.104   6.433   5.871  0.3030 -0.0011 -0.0596
   92PC     H1A 4082   3.040   6.461   5.788  1.0492 -0.1727 -0.7063
   92PC     H1B 4083   3.063   6.341   5.913  0.7747 -0.9935 -1.7064
   92PC     C32 4084   3.109   6.547   5.972  0.3501 -0.5141 -0.4079
   92PC     H2A 4085   3.004   6.561   6.001 -0.3375 -0.8342 -2.6048
   92PC     H2B 4086   3.168   6.525   6.061 -0.0911  2.0388  0.6276
   92PC     N31 4087   3.160   6.680   5.918 -0.8128 -0.2184  0.1645
   92PC     C33 4088   3.125   6.697   5.773 -0.2092  0.2109  0.3412
   92PC     H3A 4089   3.018   6.684   5.756 -0.3660  0.1368  1.3374
   92PC     H3B 4090   3.158   6.798   5.749 -1.0920  0.7487  1.3339
   92PC     H3C 4091   3.171   6.614   5.718 -2.0292 -0.5411 -0.1278
   92PC     C34 4092   3.099   6.796   5.986 -0.2251  0.4708 -0.1921
   92PC     H4A 4093   3.131   6.800   6.090 -0.6914 -0.7503  0.0127
   92PC     H4B 4094   3.120   6.887   5.929  0.7547 -0.3389 -1.1849
   92PC     H4C 4095   2.994   6.766   5.981 -0.6565  1.9049  0.0411
   92PC     C35 4096   3.305   6.687   5.930  0.0381  0.1954 -0.4405
   92PC     H5A 4097   3.352   6.619   5.859  1.6770 -0.5158  1.2569
   92PC     H5B 4098   3.325   6.659   6.033  0.6539  0.5351 -0.4589
   92PC     H5C 4099   3.337   6.787   5.900 -0.7389  0.9244  1.0371
   92PC     O33 4100   3.330   6.349   6.041  0.5734 -0.5575  0.1785
   92PC     O34 4101   3.482   6.390   5.846 -0.2801 -0.2053 -0.0732
   92PC     O21 4102   3.529   6.068   5.580 -0.1274  0.6397 -0.0439
   92PC     C21 4103   3.654   6.031   5.554 -0.4734 -0.0201  0.1263
   92PC     O22 4104   3.737   5.990   5.637 -0.0493 -0.2497  0.1502
   93OL     C12 4105   3.683   6.028   5.406  0.4474 -0.2398  0.3611
   93OL     H2R 4106   3.697   6.128   5.364 -1.1839 -0.4280 -0.7268
   93OL     H2S 4107   3.595   5.987   5.355  0.1324 -2.5377  2.5533
   93OL     C13 4108   3.791   5.927   5.371  0.1225 -0.2743  0.4881
   93OL     H3R 4109   3.762   5.831   5.415 -0.5376 -0.5285 -0.4835
   93OL     H3S 4110   3.887   5.960   5.410  0.9847 -1.0127 -0.9218
   93OL     C14 4111   3.820   5.911   5.225  0.1228  0.4874  0.1196
   93OL     H4R 4112   3.742   5.852   5.175  0.9953 -0.6052  0.0235
   93OL     H4S 4113   3.905   5.843   5.219 -0.8786 -0.7161 -0.9271
   93OL     C15 4114   3.853   6.045   5.143  0.0579 -0.1634 -0.4205
   93OL     H5R 4115   3.943   6.099   5.173  0.4859 -0.8968 -0.3659
   93OL     H5S 4116   3.767   6.110   5.160 -1.0596 -1.6136 -0.3494
   93OL     C16 4117   3.863   6.025   4.989 -0.1384  0.0411  0.2209
   93OL     H6R 4118   3.775   5.970   4.955  1.5501 -1.4811 -1.8811
   93OL     H6S 4119   3.950   5.962   4.968 -0.9772 -1.3039  0.6595
   93OL     C17 4120   3.883   6.152   4.906 -0.0628 -0.2978  0.4077
   93OL     H7R 4121   3.985   6.188   4.898 -1.0523  2.5128 -0.9175
   93OL     H7S 4122   3.819   6.227   4.954 -0.7072  0.1842 -1.1465
   93OL     C18 4123   3.844   6.141   4.760  0.1825  0.0317  0.0439
   93OL     H8R 4124   3.847   6.237   4.708 -1.9976  0.5335  0.7338
   93OL     H8S 4125   3.738   6.117   4.764 -0.2259  1.6659 -0.2522
   93OL     C19 4126   3.927   6.036   4.684  0.0767 -0.0761 -0.8280
   93OL     H9R 4127   4.031   6.031   4.714 -0.6227 -0.3293  1.7427
   93OL    C110 4128   3.891   5.968   4.580  0.0456  0.6725  0.3252
   93OL    H10R 4129   3.963   5.916   4.517  2.9905  3.6611  0.9496
   93OL    C111 4130   3.742   5.958   4.532 -0.0215 -0.1294  0.3147
   93OL    H11R 4131   3.706   6.060   4.519  0.7852  0.1710  0.3787
   93OL    H11S 4132   3.683   5.903   4.606  1.1016  0.5998  1.8279
   93OL    C112 4133   3.732   5.889   4.395  0.5783  1.3255  0.2023
   93OL    H12R 4134   3.633   5.853   4.366  1.2831 -0.7535  0.2319
   93OL    H12S 4135   3.786   5.795   4.403  0.2595  1.2996  3.3203
   93OL    C113 4136   3.792   5.971   4.280 -0.4635 -0.4833  0.3311
   93OL    H13R 4137   3.893   5.997   4.312  0.4509 -2.1482 -1.0189
   93OL    H13S 4138   3.729   6.059   4.265 -0.8795 -0.7834  0.2855
   93OL    C114 4139   3.797   5.897   4.144 -0.4410 -0.6159  0.2216
   93OL    H14R 4140   3.838   5.963   4.067 -0.6643  1.1877  1.5722
   93OL    H14S 4141   3.695   5.876   4.111 -1.1468 -0.4926  2.1859
   93OL    C115 4142   3.876   5.765   4.153  0.2148 -0.2043 -0.2942
   93OL    H15R 4143   3.826   5.700   4.225  0.4629 -0.7982 -0.6484
   93OL    H15S 4144   3.979   5.786   4.183  0.3511 -1.7122  0.3829
   93OL    C116 4145   3.882   5.696   4.014 -0.2036  0.5379 -0.1132
   93OL    H16R 4146   3.892   5.770   3.934 -0.2936 -0.2260 -0.8433
   93OL    H16S 4147   3.791   5.639   3.995  0.2315  0.0637 -0.8252
   93OL    C117 4148   3.998   5.600   4.020 -0.5058  0.3656  0.7062
   93OL    H17R 4149   4.003   5.558   4.120 -1.7572 -0.4412  0.4520
   93OL    H17S 4150   4.085   5.665   4.011 -0.1194 -0.2332  0.0087
   93OL    C118 4151   3.995   5.491   3.919 -0.1701  0.1025 -0.7953
   93OL    H18R 4152   4.084   5.427   3.919 -0.3025 -0.2978  2.5697
   93OL    H18S 4153   3.992   5.524   3.815  1.9837 -1.3172 -1.3761
   93OL    H18T 4154   3.908   5.431   3.946  0.4701 -0.8596 -0.8439
   94PA    C116 4155   3.403  -2.752   4.166  0.1212 -0.3470  0.0517
   94PA    H16R 4156   3.453  -2.849   4.170 -0.1542 -0.5200 -0.5348
   94PA    H16S 4157   3.295  -2.766   4.155  0.1506 -0.1954 -0.4558
   94PA    H16T 4158   3.420  -2.683   4.249 -1.9706 -0.5647  0.7207
   94PA    C115 4159   3.453  -2.687   4.035 -0.2499 -0.0058 -0.3954
   94PA    H15R 4160   3.560  -2.667   4.041 -0.2279 -0.5382  1.4352
   94PA    H15S 4161   3.432  -2.751   3.949 -2.0887  1.5140 -1.1584
   94PA    C114 4162   3.381  -2.555   4.008  0.1593 -0.5773 -0.5585
   94PA    H14R 4163   3.405  -2.492   4.094  2.4545 -0.5599 -1.1421
   94PA    H14S 4164   3.434  -2.506   3.925  1.1547  0.4060  0.6175
   94PA    C113 4165   3.230  -2.566   3.978 -0.1398 -0.7148  0.5062
   94PA    H13R 4166   3.209  -2.618   3.885 -0.2268 -0.8653  0.6090
   94PA    H13S 4167   3.191  -2.635   4.054  0.1027 -0.9739  0.3964
   94PA    C112 4168   3.150  -2.428   3.964  0.4267  0.5940 -0.5733
   94PA    H12R 4169   3.180  -2.377   3.872 -1.0057  1.6843 -0.4610
   94PA    H12S 4170   3.047  -2.464   3.964  1.0463 -1.2783 -0.5419
   94PA    C111 4171   3.164  -2.331   4.082 -0.2888 -0.3292  0.4384
   94PA    H11R 4172   3.272  -2.318   4.089 -0.0255 -1.5116 -0.9624
   94PA    H11S 4173   3.149  -2.226   4.052  1.0892  0.4645  2.3263
   94PA    C110 4174   3.115  -2.383   4.216 -0.6872 -0.4537 -0.1666
   94PA    H10R 4175   3.006  -2.387   4.216 -0.7177  0.0310  0.9745
   94PA    H10S 4176   3.147  -2.486   4.233 -0.3093 -0.1478  1.0852
   94PA     C19 4177   3.165  -2.283   4.324 -0.0588 -0.3039  0.6603
   94PA     H9R 4178   3.274  -2.277   4.337 -0.0832 -0.9937  1.2160
   94PA     H9S 4179   3.129  -2.183   4.298 -3.2179 -1.4966 -0.0033
   94PA     C18 4180   3.100  -2.329   4.463  0.4468  0.3340 -0.2350
   94PA     H8R 4181   2.991  -2.315   4.458  0.1815 -1.8383 -2.7077
   94PA     H8S 4182   3.115  -2.437   4.469 -0.7654  0.0693 -1.3204
   94PA     C17 4183   3.159  -2.264   4.580 -0.0866 -0.8436 -0.8535
   94PA     H7R 4184   3.266  -2.290   4.577  0.3374  0.1763  1.9560
   94PA     H7S 4185   3.147  -2.157   4.564 -1.3455 -1.1662 -2.2504
   94PA     C16 4186   3.090  -2.310   4.709  0.5542 -0.0430 -0.3333
   94PA     H6R 4187   2.987  -2.273   4.710  0.7215  0.4262 -0.1536
   94PA     H6S 4188   3.082  -2.418   4.699  0.5508  0.0515 -1.4603
   94PA     C15 4189   3.160  -2.285   4.842 -0.2174  0.1293  0.0928
   94PA     H5R 4190   3.239  -2.357   4.862 -0.2231  0.6982  2.5071
   94PA     H5S 4191   3.214  -2.191   4.836  3.4123 -1.6389  1.9697
   94PA     C14 4192   3.076  -2.292   4.962 -0.4180 -0.5307 -0.7315
   94PA     H4R 4193   2.981  -2.240   4.944 -1.1846 -1.6316  0.0067
   94PA     H4S 4194   3.051  -2.397   4.980 -2.6767 -0.4233 -2.6959
   94PA     C13 4195   3.139  -2.230   5.090  0.6132 -0.0999 -0.5095
   94PA     H3R 4196   3.165  -2.127   5.068 -0.0982  0.0198 -0.8217
   94PA     H3S 4197   3.065  -2.231   5.170 -1.3872 -1.6431 -2.2327
   94PA     C12 4198   3.267  -2.302   5.140 -0.3905  0.2736  0.2896
   94PA     H2R 4199   3.241  -2.408   5.139 -3.5519  0.9468 -0.0636
   94PA     H2S 4200   3.348  -2.283   5.069  0.9299 -1.3998  1.2654
   95PC     C11 4201   3.320  -2.262   5.279 -0.4172 -0.0125  0.2358
   95PC     O12 4202   3.324  -2.143   5.308  0.2155  0.2496  0.5156
   95PC     O11 4203   3.363  -2.364   5.358 -0.1900 -0.2332 -0.6757
   95PC      C1 4204   3.418  -2.329   5.495  0.1942 -0.4974  0.2960
   95PC      HR 4205   3.382  -2.233   5.534  0.2141 -0.2435 -0.2939
   95PC      HS 4206   3.396  -2.413   5.561  0.8320 -0.3690  0.6756
   95PC      C2 4207   3.567  -2.316   5.487 -0.3099  0.0536  0.5643
   95PC      HX 4208   3.605  -2.401   5.430 -0.2964  1.2536 -1.2881
   95PC      C3 4209   3.636  -2.313   5.627  0.4036 -0.2753  0.4600
   95PC      HA 4210   3.741  -2.282   5.624 -0.5419  3.8936  2.5706
   95PC      HB 4211   3.589  -2.226   5.673 -2.1798 -1.0172 -0.6282
   95PC     O31 4212   3.602  -2.432   5.712  0.1100  0.3247  0.6877
   95PC     P31 4213   3.686  -2.567   5.709 -0.2656 -0.1900 -0.1459
   95PC     O32 4214   3.621  -2.654   5.597  0.2938  0.6850  0.4539
   95PC     C31 4215   3.492  -2.707   5.610  0.8318  0.2093 -0.0145
   95PC     H1A 4216   3.491  -2.759   5.706  1.1672 -0.4550 -0.3698
   95PC     H1B 4217   3.413  -2.631   5.613  0.6971  0.1262 -1.0856
   95PC     C32 4218   3.458  -2.810   5.508  0.1572  0.2886  0.2898
   95PC     H2A 4219   3.529  -2.893   5.501 -0.4378 -0.8560  4.9187
   95PC     H2B 4220   3.372  -2.865   5.544  0.2303 -0.2000 -0.2669
   95PC     N31 4221   3.418  -2.768   5.366  0.7922 -0.3186  0.7634
   95PC     C33 4222   3.371  -2.889   5.290 -0.6440 -0.1776  0.1628
   95PC     H3A 4223   3.460  -2.952   5.292  0.0512  0.7079 -1.2588
   95PC     H3B 4224   3.286  -2.937   5.340 -0.0283 -0.3644  1.0381
   95PC     H3C 4225   3.335  -2.855   5.193 -0.4130  0.6904  0.3787
   95PC     C34 4226   3.298  -2.672   5.376  0.4735  0.6465  0.4132
   95PC     H4A 4227   3.298  -2.622   5.279 -0.8255 -1.9584 -1.0520
   95PC     H4B 4228   3.207  -2.731   5.385  0.5507  0.5554  0.5917
   95PC     H4C 4229   3.303  -2.593   5.451  0.2965  0.2774  0.8205
   95PC     C35 4230   3.529  -2.698   5.300  0.4567 -0.2398  0.6246
   95PC     H5A 4231   3.517  -2.680   5.193 -0.5372 -1.0292  0.5836
   95PC     H5B 4232   3.619  -2.754   5.326 -0.8909 -1.0820  4.0148
   95PC     H5C 4233   3.521  -2.604   5.354 -0.2970 -0.3831  0.7808
   95PC     O33 4234   3.820  -2.519   5.661 -0.2352 -0.2108  0.1389
   95PC     O34 4235   3.664  -2.639   5.835 -0.2985 -0.5356  0.1314
   95PC     O21 4236   3.595  -2.210   5.405 -0.2204 -0.5637 -0.4499
   95PC     C21 4237   3.701  -2.204   5.316 -0.1691 -0.1214 -0.6503
   95PC     O22 4238   3.775  -2.297   5.295  0.0736 -0.1003  0.2329
   96OL     C12 4239   3.721  -2.069   5.251 -0.6669 -0.0107 -0.4002
   96OL     H2R 4240   3.826  -2.040   5.249 -1.2089  2.1837 -1.8527
   96OL     H2S 4241   3.670  -1.990   5.306  2.6952  1.8713  0.3081
   96OL     C13 4242   3.678  -2.073   5.106  0.2298  0.5216  0.1728
   96OL     H3R 4243   3.669  -1.971   5.069  0.4561  0.5691  0.2472
   96OL     H3S 4244   3.585  -2.130   5.096  0.6296 -0.3113  1.0025
   96OL     C14 4245   3.779  -2.143   5.011  0.4330 -0.3231  0.3405
   96OL     H4R 4246   3.801  -2.247   5.035  0.8400 -0.0927  0.9986
   96OL     H4S 4247   3.876  -2.095   5.030  0.5276 -0.2657 -0.2592
   96OL     C15 4248   3.739  -2.131   4.857  0.5205  0.5822 -0.7360
   96OL     H5R 4249   3.812  -2.167   4.783 -1.0282 -1.1842 -1.4794
   96OL     H5S 4250   3.730  -2.025   4.832  2.2117  1.4481  1.8824
   96OL     C16 4251   3.611  -2.208   4.823  0.1382  0.2964  0.1734
   96OL     H6R 4252   3.526  -2.172   4.882 -1.6994 -0.5940 -1.7719
   96OL     H6S 4253   3.624  -2.316   4.827 -0.0228  0.2263 -0.8284
   96OL     C17 4254   3.570  -2.187   4.673 -0.3097 -0.1379 -0.7133
   96OL     H7R 4255   3.593  -2.086   4.637 -0.7490 -0.0185 -0.6618
   96OL     H7S 4256   3.462  -2.203   4.676 -0.2214 -0.6144  0.5886
   96OL     C18 4257   3.646  -2.270   4.571  0.2794 -0.3736  0.4324
   96OL     H8R 4258   3.664  -2.363   4.624  1.4630 -0.6513 -0.4031
   96OL     H8S 4259   3.744  -2.227   4.549  0.0291 -0.6151 -1.3942
   96OL     C19 4260   3.562  -2.292   4.440 -0.5393  0.3078 -0.0922
   96OL     H9R 4261   3.470  -2.348   4.455  0.0660 -0.7073 -0.0327
   96OL    C110 4262   3.588  -2.256   4.319 -0.6932 -0.2048  0.7222
   96OL    H10R 4263   3.512  -2.276   4.244 -0.7518 -0.8559  0.9515
   96OL    C111 4264   3.702  -2.162   4.290  0.1659  0.0471 -0.2541
   96OL    H11R 4265   3.761  -2.125   4.374  0.7364 -1.5567  0.0735
   96OL    H11S 4266   3.666  -2.070   4.242 -1.0139 -0.6059 -0.6810
   96OL    C112 4267   3.799  -2.237   4.193 -0.3213  0.3894 -0.6323
   96OL    H12R 4268   3.859  -2.309   4.249 -0.0593  1.5281  0.6046
   96OL    H12S 4269   3.872  -2.161   4.164  0.4526  0.3427  1.0405
   96OL    C113 4270   3.739  -2.304   4.070 -0.2014 -0.7937 -0.3328
   96OL    H13R 4271   3.700  -2.221   4.010 -2.5107 -0.2778  1.7389
   96OL    H13S 4272   3.656  -2.369   4.099 -1.1752  0.8574  0.8015
   96OL    C114 4273   3.844  -2.374   3.986 -0.1566  0.7833 -0.2806
   96OL    H14R 4274   3.879  -2.455   4.051 -0.2065 -0.0120 -1.2269
   96OL    H14S 4275   3.923  -2.299   3.979  1.0283 -0.3055  0.7662
   96OL    C115 4276   3.779  -2.434   3.857 -0.8348 -0.3393 -0.6372
   96OL    H15R 4277   3.744  -2.358   3.787  0.4678 -0.6552 -1.6689
   96OL    H15S 4278   3.694  -2.494   3.890 -0.5918  0.0695  0.8202
   96OL    C116 4279   3.876  -2.536   3.779  0.5649  0.0331  0.0204
   96OL    H16R 4280   3.932  -2.604   3.843  1.3021  1.0769  0.5138
   96OL    H16S 4281   3.949  -2.479   3.721 -0.0655  1.0915  0.2498
   96OL    C117 4282   3.794  -2.624   3.683  0.0317  1.2531  0.4134
   96OL    H17R 4283   3.727  -2.692   3.735  1.8263 -1.3480 -0.4192
   96OL    H17S 4284   3.861  -2.690   3.626 -0.7557  1.3418 -0.6540
   96OL    C118 4285   3.727  -2.556   3.562 -0.0437 -0.1017 -0.4412
   96OL    H18R 4286   3.700  -2.632   3.488  0.0093 -1.0703  0.5119
   96OL    H18S 4287   3.813  -2.506   3.517  0.4659 -1.1142 -0.6209
   96OL    H18T 4288   3.643  -2.493   3.592  0.7581 -0.0994  2.0050
   97PA    C116 4289   0.191   1.523   3.612  0.1698 -0.4306 -0.0192
   97PA    H16R 4290   0.238   1.597   3.547 -0.8692  1.8610  1.7440
   97PA    H16S 4291   0.089   1.561   3.622  0.0734 -1.0068  1.3889
   97PA    H16T 4292   0.185   1.425   3.563  2.5808 -1.5836  1.7910
   97PA    C115 4293   0.254   1.506   3.753  0.3193 -0.0048  0.7317
   97PA    H15R 4294   0.191   1.449   3.822 -0.0563 -0.4505  0.0336
   97PA    H15S 4295   0.345   1.450   3.730  0.7532  0.8296  0.3887
   97PA    C114 4296   0.293   1.644   3.808 -0.4299  0.2425 -0.4156
   97PA    H14R 4297   0.367   1.698   3.749  1.3292 -0.7815  0.7723
   97PA    H14S 4298   0.204   1.707   3.815 -0.6950  0.0437 -1.8388
   97PA    C113 4299   0.352   1.617   3.951  0.4642 -0.3294 -0.6699
   97PA    H13R 4300   0.272   1.588   4.019 -2.0961  0.4212 -3.1305
   97PA    H13S 4301   0.428   1.539   3.942  0.4876 -0.1633 -2.3035
   97PA    C112 4302   0.413   1.739   4.026 -0.1265 -0.5271  0.3744
   97PA    H12R 4303   0.501   1.768   3.967 -1.2450  1.3828 -0.4585
   97PA    H12S 4304   0.342   1.821   4.015 -0.4525 -1.0203 -1.7201
   97PA    C111 4305   0.445   1.705   4.173 -0.5392  0.1941 -0.0100
   97PA    H11R 4306   0.528   1.634   4.180 -1.5244 -0.8398  2.3484
   97PA    H11S 4307   0.495   1.792   4.216 -0.9262  0.6893 -0.5331
   97PA    C110 4308   0.326   1.664   4.268  0.0854 -0.3492  0.1549
   97PA    H10R 4309   0.231   1.704   4.232  0.3321 -0.5014 -0.6856
   97PA    H10S 4310   0.316   1.555   4.268 -0.6577 -0.3105  1.6431
   97PA     C19 4311   0.363   1.709   4.411 -0.1432 -0.1571  0.3421
   97PA     H9R 4312   0.457   1.662   4.440 -0.1859  0.3381  1.3523
   97PA     H9S 4313   0.381   1.817   4.403  0.1183 -0.1530  0.9134
   97PA     C18 4314   0.267   1.673   4.517  0.2109 -0.6854  0.1220
   97PA     H8R 4315   0.286   1.726   4.611 -0.9057 -0.5653  0.2857
   97PA     H8S 4316   0.181   1.721   4.471  1.8173 -0.5445 -2.9679
   97PA     C17 4317   0.236   1.527   4.549 -0.2964 -0.3452 -0.3618
   97PA     H7R 4318   0.184   1.486   4.462  1.3669 -0.7352 -1.2141
   97PA     H7S 4319   0.330   1.471   4.541 -0.2371 -0.4061  0.5945
   97PA     C16 4320   0.158   1.491   4.675 -0.0310  0.2941  0.3418
   97PA     H6R 4321   0.111   1.395   4.655  0.4287 -0.2970  1.9566
   97PA     H6S 4322   0.223   1.474   4.761  1.4838  2.5505 -0.2565
   97PA     C15 4323   0.051   1.594   4.706  0.3669  0.1128 -0.4361
   97PA     H5R 4324   0.106   1.684   4.737 -1.4060  2.3323 -3.2850
   97PA     H5S 4325  -0.007   1.618   4.617 -0.3671 -2.4270 -0.7104
   97PA     C14 4326  -0.031   1.539   4.823 -0.1192  0.0508  0.3300
   97PA     H4R 4327  -0.117   1.604   4.840 -2.4642 -2.4501 -1.2285
   97PA     H4S 4328  -0.077   1.442   4.803 -0.0301 -0.0522  0.6222
   97PA     C13 4329   0.025   1.535   4.965 -0.3585  0.0722 -0.0889
   97PA     H3R 4330   0.126   1.495   4.967 -1.0306 -1.7192  1.9077
   97PA     H3S 4331   0.023   1.635   5.007  0.1781 -1.0103  2.7027
   97PA     C12 4332  -0.062   1.453   5.062 -0.2669  0.7752 -1.0119
   97PA     H2R 4333  -0.167   1.481   5.050 -0.1682  2.5073  1.3741
   97PA     H2S 4334  -0.052   1.348   5.035 -2.7099  0.0575  0.5143
   98PC     C11 4335  -0.020   1.474   5.206 -0.3352  0.1005  0.0762
   98PC     O12 4336   0.080   1.426   5.245  0.4432 -0.5126 -0.7686
   98PC     O11 4337  -0.074   1.583   5.268  0.2690 -0.5259  0.3264
   98PC      C1 4338  -0.013   1.628   5.394 -0.0468 -0.1300  0.5198
   98PC      HR 4339   0.018   1.545   5.459 -0.0613 -1.9699 -1.6950
   98PC      HS 4340   0.071   1.692   5.367 -0.2571  0.3353  0.9468
   98PC      C2 4341  -0.114   1.716   5.473 -0.2683 -0.1138  0.4199
   98PC      HX 4342  -0.063   1.763   5.557 -0.5422 -0.5201  0.8171
   98PC      C3 4343  -0.228   1.635   5.530  0.7092  0.6106 -0.5664
   98PC      HA 4344  -0.279   1.583   5.450  1.2286 -0.5093 -0.1879
   98PC      HB 4345  -0.196   1.569   5.611 -0.3629  1.7039  0.7986
   98PC     O31 4346  -0.338   1.719   5.580 -0.4424 -0.2013  0.2253
   98PC     P31 4347  -0.342   1.807   5.713  0.5124 -0.0524 -0.4233
   98PC     O32 4348  -0.457   1.906   5.696  0.0967  0.2971  0.4844
   98PC     C31 4349  -0.601   1.870   5.707  0.2958 -0.7335  0.1657
   98PC     H1A 4350  -0.653   1.923   5.627 -0.1622 -1.6769 -0.1824
   98PC     H1B 4351  -0.608   1.763   5.683  0.9105 -0.8361  0.4297
   98PC     C32 4352  -0.634   1.904   5.849  0.4065  0.3216 -0.1046
   98PC     H2A 4353  -0.728   1.859   5.880  1.5231 -0.6139  2.0726
   98PC     H2B 4354  -0.554   1.860   5.908  1.8402 -0.0566 -2.1971
   98PC     N31 4355  -0.649   2.050   5.891 -0.3617  0.6728  0.6252
   98PC     C33 4356  -0.657   2.055   6.042  0.0178 -0.8946 -0.0677
   98PC     H3A 4357  -0.556   2.037   6.081 -0.2957 -2.1871  0.1947
   98PC     H3B 4358  -0.686   2.156   6.072  0.4201 -0.9474  0.5267
   98PC     H3C 4359  -0.732   1.986   6.079 -2.2934  1.2688 -0.4960
   98PC     C34 4360  -0.530   2.125   5.838 -0.2834 -0.3638  0.2076
   98PC     H4A 4361  -0.444   2.073   5.880 -0.4406 -0.7085  0.1051
   98PC     H4B 4362  -0.529   2.112   5.730 -0.9683 -1.0672  0.2836
   98PC     H4C 4363  -0.547   2.230   5.862  1.0792 -0.0895  0.0981
   98PC     C35 4364  -0.778   2.105   5.830 -0.0635  0.2001  0.2535
   98PC     H5A 4365  -0.760   2.115   5.723  0.4765  0.4264  0.3618
   98PC     H5B 4366  -0.810   2.200   5.872  2.9746  1.5068 -0.1403
   98PC     H5C 4367  -0.852   2.028   5.850 -0.3431  1.0334  2.7000
   98PC     O33 4368  -0.365   1.713   5.822 -0.0214 -0.1978  0.0594
   98PC     O34 4369  -0.223   1.894   5.719 -0.4266 -0.7015 -0.0742
   98PC     O21 4370  -0.172   1.813   5.375 -0.2230  0.2138  0.5256
   98PC     C21 4371  -0.088   1.910   5.328  0.5402 -0.1247 -0.6735
   98PC     O22 4372   0.026   1.930   5.368 -0.4396  0.3024 -0.6276
   99OL     C12 4373  -0.155   1.997   5.219  0.3728  0.1166 -0.1949
   99OL     H2R 4374  -0.118   2.099   5.232  0.5864 -0.0621  0.6661
   99OL     H2S 4375  -0.263   2.011   5.230  0.3679 -0.3036  0.2909
   99OL     C13 4376  -0.124   1.932   5.083  0.0485  0.4758 -0.4769
   99OL     H3R 4377  -0.150   1.828   5.101 -2.4092  0.9563 -0.9508
   99OL     H3S 4378  -0.016   1.938   5.068  0.3684  1.2616  1.6894
   99OL     C14 4379  -0.206   1.976   4.957 -0.1627  0.5238 -1.0162
   99OL     H4R 4380  -0.195   2.085   4.960  1.2531  0.3852  1.4849
   99OL     H4S 4381  -0.305   1.939   4.987  0.8894 -2.3923 -0.8468
   99OL     C15 4382  -0.170   1.903   4.823 -0.1214  0.1604  0.5839
   99OL     H5R 4383  -0.197   1.798   4.830 -2.9889  0.7223 -0.6878
   99OL     H5S 4384  -0.063   1.909   4.802 -0.2285 -1.3120 -0.5578
   99OL     C16 4385  -0.235   1.961   4.700 -0.3039  0.4172  0.2095
   99OL     H6R 4386  -0.199   2.064   4.693  2.5938 -0.5797 -1.2664
   99OL     H6S 4387  -0.343   1.957   4.713 -0.9543  0.3674 -3.8799
   99OL     C17 4388  -0.192   1.877   4.576  0.8497 -0.5893 -0.3575
   99OL     H7R 4389  -0.087   1.848   4.579  0.6596 -1.3081  3.3927
   99OL     H7S 4390  -0.214   1.941   4.489 -1.9800 -0.3116  0.4517
   99OL     C18 4391  -0.289   1.765   4.545  0.0135  0.2373 -0.3496
   99OL     H8R 4392  -0.286   1.696   4.629 -1.9214 -1.5589 -1.6846
   99OL     H8S 4393  -0.244   1.723   4.455 -0.7653  3.3081 -2.3475
   99OL     C19 4394  -0.430   1.814   4.518  0.9050  0.1190  0.6274
   99OL     H9R 4395  -0.472   1.877   4.597  1.5831 -0.8125  1.7627
   99OL    C110 4396  -0.494   1.788   4.406 -0.0760  0.2586 -0.2070
   99OL    H10R 4397  -0.592   1.836   4.401 -1.2334 -1.8224  0.9738
   99OL    C111 4398  -0.444   1.726   4.275  0.5102 -0.0778 -0.4908
   99OL    H11R 4399  -0.353   1.669   4.292  0.4649 -0.0611 -0.1929
   99OL    H11S 4400  -0.416   1.799   4.198 -0.9855 -0.2532 -1.2494
   99OL    C112 4401  -0.546   1.643   4.201  0.2236  0.9075 -0.7682
   99OL    H12R 4402  -0.633   1.709   4.196 -0.5552 -0.1510 -1.3718
   99OL    H12S 4403  -0.574   1.557   4.262 -2.7745  1.4091 -1.2662
   99OL    C113 4404  -0.511   1.598   4.059  0.0845  0.1873 -0.0159
   99OL    H13R 4405  -0.443   1.513   4.064 -1.1152 -0.8212 -0.4308
   99OL    H13S 4406  -0.487   1.682   3.993  1.6004 -1.3937 -1.5397
   99OL    C114 4407  -0.634   1.540   3.998  0.6325  0.3063 -0.0963
   99OL    H14R 4408  -0.715   1.608   4.027  0.2575 -0.8840  1.8100
   99OL    H14S 4409  -0.656   1.440   4.035 -1.4197  0.8324  0.2181
   99OL    C115 4410  -0.642   1.525   3.848 -0.2940  0.1636  0.4192
   99OL    H15R 4411  -0.738   1.490   3.811 -0.3867 -1.0991  1.7557
   99OL    H15S 4412  -0.579   1.447   3.805 -0.2302  0.8893 -0.8345
   99OL    C116 4413  -0.625   1.658   3.779  0.4045 -1.0494  0.0850
   99OL    H16R 4414  -0.522   1.689   3.794  0.1180  0.8804 -1.5598
   99OL    H16S 4415  -0.690   1.728   3.831  1.0023 -0.5681  0.1925
   99OL    C117 4416  -0.657   1.658   3.627 -0.3530  0.1531 -0.7150
   99OL    H17R 4417  -0.667   1.764   3.602  0.6351  0.7613  1.2985
   99OL    H17S 4418  -0.761   1.629   3.613 -0.3832  0.2911 -0.7890
   99OL    C118 4419  -0.555   1.589   3.536 -0.2567  0.4953  0.2795
   99OL    H18R 4420  -0.463   1.648   3.544  0.7850 -0.9415 -0.5471
   99OL    H18S 4421  -0.587   1.598   3.432  0.5969 -0.7145 -0.1102
   99OL    H18T 4422  -0.534   1.485   3.558 -1.7596 -0.1790 -1.2583
  100PA    C116 4423   4.170   1.704   4.451  0.2188 -0.1781  0.2036
  100PA    H16R 4424   4.112   1.742   4.535  1.2149  0.0900  0.7908
  100PA    H16S 4425   4.229   1.620   4.490  0.3904  0.0479  0.4395
  100PA    H16T 4426   4.110   1.667   4.368  3.0379  1.2794 -2.7109
  100PA    C115 4427   4.254   1.820   4.402 -0.5067  0.0680 -0.2046
  100PA    H15R 4428   4.302   1.867   4.488 -1.4371  1.6342 -0.5117
  100PA    H15S 4429   4.323   1.772   4.331 -1.7075 -1.0712 -0.6511
  100PA    C114 4430   4.173   1.924   4.325  0.2484  0.5855  0.0298
  100PA    H14R 4431   4.241   2.000   4.286  1.0211 -0.8631 -1.5465
  100PA    H14S 4432   4.107   1.875   4.253  0.5565 -1.9844  1.4073
  100PA    C113 4433   4.075   1.993   4.431  0.6270 -0.0242  0.4015
  100PA    H13R 4434   4.017   1.916   4.482  0.2476  0.0760  0.1214
  100PA    H13S 4435   4.138   2.043   4.505 -0.6545  3.1891 -0.5168
  100PA    C112 4436   3.986   2.102   4.376  0.3791  0.4527  0.9755
  100PA    H12R 4437   3.920   2.065   4.298  1.1998 -0.3352  0.6340
  100PA    H12S 4438   3.934   2.142   4.463  1.1876 -0.5278  1.9490
  100PA    C111 4439   4.060   2.213   4.295 -0.0109  0.7684  0.4913
  100PA    H11R 4440   4.124   2.172   4.216 -2.5924 -2.4155 -0.1643
  100PA    H11S 4441   3.988   2.275   4.242 -0.3807 -0.2473 -0.2268
  100PA    C110 4442   4.142   2.297   4.397  0.0692  0.3776  0.2713
  100PA    H10R 4443   4.083   2.332   4.481  0.9539 -0.8431  1.4533
  100PA    H10S 4444   4.215   2.232   4.446  1.3804  0.3547 -1.5946
  100PA     C19 4445   4.225   2.408   4.326 -0.5731 -0.0264  0.1761
  100PA     H9R 4446   4.293   2.373   4.248 -0.8981  0.6498 -0.4162
  100PA     H9S 4447   4.156   2.467   4.266 -1.5217  0.1107  1.3700
  100PA     C18 4448   4.301   2.503   4.419  0.0229  0.6480  1.1111
  100PA     H8R 4449   4.375   2.443   4.473  0.6922 -0.1324 -0.5885
  100PA     H8S 4450   4.364   2.564   4.354 -2.8410 -0.6048 -3.2983
  100PA     C17 4451   4.218   2.605   4.506 -0.2587 -0.0367 -0.2919
  100PA     H7R 4452   4.139   2.655   4.450  0.4124  2.4314  0.7893
  100PA     H7S 4453   4.162   2.550   4.582  0.9753  0.2677  0.8819
  100PA     C16 4454   4.313   2.717   4.574  0.0654  0.5329  0.1027
  100PA     H6R 4455   4.410   2.675   4.599 -0.4424 -0.7853 -0.0411
  100PA     H6S 4456   4.339   2.800   4.507  0.2650 -1.0290 -1.8483
  100PA     C15 4457   4.250   2.782   4.699  0.1167  0.3057  0.1368
  100PA     H5R 4458   4.167   2.844   4.666 -0.3099  1.3540  2.9177
  100PA     H5S 4459   4.206   2.707   4.765 -3.5679  0.9026 -1.4060
  100PA     C14 4460   4.352   2.867   4.778 -0.2057  0.2878 -0.8602
  100PA     H4R 4461   4.436   2.808   4.817  0.1445  0.8767 -0.7003
  100PA     H4S 4462   4.408   2.933   4.712 -0.9803  0.9865 -0.8306
  100PA     C13 4463   4.288   2.943   4.887 -0.5313 -0.0129 -0.0867
  100PA     H3R 4464   4.363   3.011   4.928  1.1689 -2.3980  0.9841
  100PA     H3S 4465   4.201   3.000   4.855  1.0183  1.0906 -2.6183
  100PA     C12 4466   4.261   2.836   4.994  0.5966 -0.3847 -0.0746
  100PA     H2R 4467   4.171   2.779   4.971  0.4536 -0.2104  0.0497
  100PA     H2S 4468   4.354   2.782   5.014  1.3801  0.8116 -0.3920
  101PC     C11 4469   4.223   2.905   5.124  0.2953  0.2517 -0.0784
  101PC     O12 4470   4.192   3.022   5.141 -0.5265 -0.0585  0.1862
  101PC     O11 4471   4.234   2.820   5.230 -0.1579 -0.4516 -0.3025
  101PC      C1 4472   4.185   2.858   5.364 -0.8746  0.2911  0.5927
  101PC      HR 4473   4.226   2.782   5.432  1.3246  1.0582  0.2091
  101PC      HS 4474   4.220   2.959   5.388 -2.4188  1.2611 -1.0160
  101PC      C2 4475   4.033   2.843   5.369 -0.0582  0.4445 -0.0397
  101PC      HX 4476   3.989   2.912   5.297 -0.6531  1.0090  0.8392
  101PC      C3 4477   3.977   2.878   5.508  0.0959 -0.6613  0.0552
  101PC      HA 4478   3.963   2.987   5.505  0.9898 -0.4175  2.6086
  101PC      HB 4479   3.877   2.838   5.530 -0.8614  1.1309 -0.7939
  101PC     O31 4480   4.074   2.839   5.615  0.1544  0.4176  0.0121
  101PC     P31 4481   4.095   2.930   5.744  0.3235  0.5902 -0.1464
  101PC     O32 4482   3.985   2.869   5.834  0.3829 -0.5436 -0.0934
  101PC     C31 4483   3.980   2.725   5.867 -0.1812 -0.2745 -0.0314
  101PC     H1A 4484   4.027   2.672   5.784 -0.1315 -0.4416  0.1023
  101PC     H1B 4485   4.039   2.705   5.956 -0.3382  0.8747  0.3487
  101PC     C32 4486   3.831   2.690   5.876  0.3826  0.6932  0.2578
  101PC     H2A 4487   3.782   2.762   5.942 -1.4679  0.8106 -1.1667
  101PC     H2B 4488   3.787   2.699   5.777  0.2605  1.7892  0.4044
  101PC     N31 4489   3.796   2.550   5.933 -0.0311 -0.0576  0.0365
  101PC     C33 4490   3.879   2.457   5.858  0.0104 -0.3189  0.4016
  101PC     H3A 4491   3.982   2.476   5.890  1.0211 -1.8607 -1.6772
  101PC     H3B 4492   3.853   2.353   5.879  0.0884 -0.2536  0.8393
  101PC     H3C 4493   3.874   2.473   5.750 -3.2088  0.6430  0.5917
  101PC     C34 4494   3.844   2.540   6.076  0.1990  0.2387 -0.2947
  101PC     H4A 4495   3.824   2.436   6.101 -0.7906  0.0600 -1.7034
  101PC     H4B 4496   3.951   2.554   6.094 -0.1049 -0.9811  3.1981
  101PC     H4C 4497   3.780   2.603   6.138  1.1504 -0.7026  1.7427
  101PC     C35 4498   3.651   2.508   5.916  0.3602 -0.7020  0.0996
  101PC     H5A 4499   3.622   2.487   5.813  0.4148  1.5087 -0.4159
  101PC     H5B 4500   3.577   2.579   5.954  1.5554 -0.5439  2.2971
  101PC     H5C 4501   3.643   2.422   5.983  0.6135 -0.4265  0.4905
  101PC     O33 4502   4.226   2.901   5.809  0.8821  0.2304 -0.6221
  101PC     O34 4503   4.069   3.068   5.700  0.0262  0.0904  0.0587
  101PC     O21 4504   4.016   2.706   5.333 -0.5103  0.1724 -0.1330
  101PC     C21 4505   3.880   2.672   5.305  0.0978 -0.2904  0.1080
  101PC     O22 4506   3.782   2.747   5.326  0.0317  0.1998 -0.0495
  102OL     C12 4507   3.866   2.544   5.223 -0.2517 -0.7214  0.2473
  102OL     H2R 4508   3.771   2.499   5.255 -0.5187  1.6279  3.1720
  102OL     H2S 4509   3.941   2.474   5.259 -0.7638 -1.1381  0.5252
  102OL     C13 4510   3.868   2.578   5.074  0.0567 -1.0697  0.8274
  102OL     H3R 4511   3.955   2.640   5.049 -1.6492  0.8530 -0.6213
  102OL     H3S 4512   3.783   2.639   5.045  1.4320  0.2283 -0.6431
  102OL     C14 4513   3.877   2.455   4.992 -0.3881 -0.0977  0.2999
  102OL     H4R 4514   3.779   2.406   4.998 -0.0750 -0.8502 -0.5667
  102OL     H4S 4515   3.945   2.383   5.038 -0.0495 -0.2379 -0.4173
  102OL     C15 4516   3.921   2.485   4.849 -0.2259 -0.4526 -0.5385
  102OL     H5R 4517   4.016   2.539   4.848 -0.5163  0.0936  0.7078
  102OL     H5S 4518   3.849   2.543   4.791 -2.3226 -0.8580  1.5279
  102OL     C16 4519   3.938   2.361   4.764  0.1695  0.1203 -0.0451
  102OL     H6R 4520   4.008   2.290   4.809 -1.5753 -1.7120 -0.0887
  102OL     H6S 4521   3.980   2.395   4.669  0.5572  0.9508  0.4082
  102OL     C17 4522   3.812   2.277   4.750 -0.7206  0.8124 -0.1104
  102OL     H7R 4523   3.787   2.234   4.847  0.8452  2.2371  0.9799
  102OL     H7S 4524   3.831   2.189   4.687  0.2448 -0.0217  1.2988
  102OL     C18 4525   3.687   2.341   4.689  0.1214 -0.2211  0.0153
  102OL     H8R 4526   3.721   2.375   4.591  1.4708  1.3005  0.9679
  102OL     H8S 4527   3.657   2.430   4.744  1.2337 -0.8140  1.7029
  102OL     C19 4528   3.565   2.251   4.667 -0.1932  0.0368 -0.6507
  102OL     H9R 4529   3.507   2.242   4.758  1.1149  0.1141  0.2080
  102OL    C110 4530   3.540   2.179   4.556  0.9020 -0.0817  0.2008
  102OL    H10R 4531   3.445   2.126   4.561  0.9465 -0.4541 -1.9897
  102OL    C111 4532   3.622   2.170   4.430  0.8017  0.8237  0.2333
  102OL    H11R 4533   3.639   2.063   4.422 -1.8664  0.3713 -0.4528
  102OL    H11S 4534   3.718   2.222   4.431 -0.6317  3.6934  1.0487
  102OL    C112 4535   3.551   2.213   4.297  0.1684 -0.0900 -0.2228
  102OL    H12R 4536   3.608   2.174   4.212 -1.1413 -2.4891 -0.0736
  102OL    H12S 4537   3.543   2.322   4.291 -0.6224 -0.1059  0.3454
  102OL    C113 4538   3.409   2.158   4.286 -0.3397  0.3702 -0.2952
  102OL    H13R 4539   3.353   2.198   4.371  1.1461 -1.2747  1.5600
  102OL    H13S 4540   3.405   2.051   4.310  0.5066  0.2530 -0.6416
  102OL    C114 4541   3.329   2.176   4.153  0.4673 -0.5445 -0.0956
  102OL    H14R 4542   3.224   2.156   4.175  0.3373  0.1822 -0.0342
  102OL    H14S 4543   3.362   2.090   4.093  0.2128 -0.8140  0.1476
  102OL    C115 4544   3.339   2.318   4.087 -0.0999  0.3403  0.0125
  102OL    H15R 4545   3.282   2.317   3.993  1.5051 -2.8559 -1.0810
  102OL    H15S 4546   3.443   2.325   4.055 -0.3952  0.4410 -0.9727
  102OL    C116 4547   3.313   2.443   4.180  0.5250 -0.2245 -0.3748
  102OL    H16R 4548   3.387   2.440   4.260 -1.6696 -1.8130  1.7328
  102OL    H16S 4549   3.211   2.446   4.219  0.4259  2.2363 -0.6967
  102OL    C117 4550   3.329   2.573   4.108 -0.0548 -0.0437  0.2000
  102OL    H17R 4551   3.432   2.582   4.073  0.4554 -1.2060  1.3216
  102OL    H17S 4552   3.323   2.642   4.192  0.4545 -1.2689  1.2779
  102OL    C118 4553   3.217   2.594   4.002 -0.0742  0.4181 -0.0877
  102OL    H18R 4554   3.120   2.581   4.051  0.6558 -0.2345  1.2520
  102OL    H18S 4555   3.214   2.531   3.913 -0.4351  0.8656 -0.3962
  102OL    H18T 4556   3.222   2.698   3.971 -1.2784  0.4471 -0.2213
  103PA    C116 4557   2.351   4.575   3.826 -0.1470  0.1308  0.0776
  103PA    H16R 4558   2.390   4.559   3.725  1.4223  0.6570  0.5754
  103PA    H16S 4559   2.436   4.611   3.884 -0.2055  1.7043 -0.7549
  103PA    H16T 4560   2.280   4.657   3.816  1.4289  1.4134 -1.0701
  103PA    C115 4561   2.276   4.450   3.876 -0.1728  0.4217  0.1441
  103PA    H15R 4562   2.197   4.433   3.803 -0.7871  2.2968  0.3351
  103PA    H15S 4563   2.343   4.364   3.871 -0.6799 -0.0891  1.6817
  103PA    C114 4564   2.212   4.474   4.016 -0.3435  0.2908  0.0094
  103PA    H14R 4565   2.291   4.468   4.091  0.3490  0.8730 -0.6646
  103PA    H14S 4566   2.176   4.577   4.011 -1.2450 -0.0596 -1.6657
  103PA    C113 4567   2.095   4.381   4.050  0.3884 -0.2879 -0.0417
  103PA    H13R 4568   2.047   4.411   4.144 -1.1032 -1.5503 -0.3554
  103PA    H13S 4569   2.013   4.400   3.980  0.7078  1.2240 -0.0330
  103PA    C112 4570   2.133   4.230   4.079 -0.8629  0.0328 -0.0871
  103PA    H12R 4571   2.040   4.172   4.078 -1.1829  0.4809 -2.5318
  103PA    H12S 4572   2.179   4.195   3.986 -0.1459  0.6023  0.0457
  103PA    C111 4573   2.223   4.202   4.208 -0.3848  0.1772  0.5411
  103PA    H11R 4574   2.235   4.093   4.214 -0.0964  0.1210 -0.6279
  103PA    H11S 4575   2.323   4.247   4.202 -0.0755 -0.6602 -1.7270
  103PA    C110 4576   2.147   4.250   4.333  0.3212  0.3804 -0.0934
  103PA    H10R 4577   2.157   4.359   4.331  1.5478  0.3205 -3.6979
  103PA    H10S 4578   2.042   4.219   4.326  0.6475 -1.2289  1.4428
  103PA     C19 4579   2.219   4.196   4.454  0.8354  0.7322  0.3002
  103PA     H9R 4580   2.211   4.087   4.443 -0.3949  1.0343 -2.7039
  103PA     H9S 4581   2.321   4.234   4.457  0.3637  2.1914 -1.0675
  103PA     C18 4582   2.136   4.242   4.578  0.3803  0.4187  0.2960
  103PA     H8R 4583   2.162   4.347   4.595  0.6771  0.6686 -1.5856
  103PA     H8S 4584   2.031   4.231   4.551  0.8152 -1.8923 -0.6448
  103PA     C17 4585   2.154   4.149   4.705 -1.3715  0.3681 -0.1311
  103PA     H7R 4586   2.088   4.193   4.780 -0.0696  2.4876 -0.1246
  103PA     H7S 4587   2.125   4.047   4.681  3.4394 -1.2641 -0.1974
  103PA     C16 4588   2.302   4.161   4.756  0.2743  0.3467  1.1168
  103PA     H6R 4589   2.362   4.086   4.703  0.6659  0.6361  1.1438
  103PA     H6S 4590   2.341   4.261   4.734  0.4040 -0.3665 -2.5879
  103PA     C15 4591   2.311   4.116   4.904 -0.0137  0.4956  0.3021
  103PA     H5R 4592   2.265   4.181   4.979  1.0367  0.4736  0.9970
  103PA     H5S 4593   2.262   4.019   4.910  0.1274  0.4310  0.3959
  103PA     C14 4594   2.460   4.109   4.940 -0.0371  0.2466 -0.0362
  103PA     H4R 4595   2.500   4.030   4.876 -1.8632 -1.1176  0.4260
  103PA     H4S 4596   2.511   4.204   4.920 -0.0812  0.9602  2.8629
  103PA     C13 4597   2.490   4.081   5.086 -0.1132  0.1194  0.4439
  103PA     H3R 4598   2.428   4.147   5.147 -1.5731 -0.5319 -0.2824
  103PA     H3S 4599   2.451   3.985   5.121 -1.4553  0.5485  0.1643
  103PA     C12 4600   2.637   4.102   5.122  0.4204 -0.1010  0.0996
  103PA     H2R 4601   2.694   4.048   5.045  0.7616  1.3717 -0.7146
  103PA     H2S 4602   2.675   4.203   5.110  0.7755 -0.0670  1.3747
  104PC     C11 4603   2.683   4.058   5.265 -0.3094 -0.1575  0.2507
  104PC     O12 4604   2.760   4.124   5.342  0.5545 -0.3955  0.1529
  104PC     O11 4605   2.627   3.941   5.304  0.2947  0.1919  0.4159
  104PC      C1 4606   2.658   3.882   5.433  0.2983 -0.5081 -0.1079
  104PC      HR 4607   2.634   3.777   5.420 -0.0907 -0.5044  0.5099
  104PC      HS 4608   2.763   3.902   5.454  0.1136  1.9641 -1.0809
  104PC      C2 4609   2.567   3.961   5.529  0.0088 -0.2360 -0.3825
  104PC      HX 4610   2.598   4.065   5.535 -0.4394 -0.0670 -0.9202
  104PC      C3 4611   2.570   3.903   5.671 -0.1258 -0.0835  0.3484
  104PC      HA 4612   2.466   3.890   5.703 -0.3088 -0.5977 -0.4411
  104PC      HB 4613   2.602   3.799   5.663  0.3335  0.0978 -0.2295
  104PC     O31 4614   2.643   3.980   5.768 -1.1233 -0.3862  0.1913
  104PC     P31 4615   2.803   3.970   5.777  0.2584  0.0409 -0.0585
  104PC     O32 4616   2.861   4.061   5.658 -0.1473  0.2613  0.3996
  104PC     C31 4617   2.836   4.204   5.647 -0.2415  0.1667 -0.0393
  104PC     H1A 4618   2.868   4.224   5.545 -1.1255 -2.1610 -0.8374
  104PC     H1B 4619   2.735   4.242   5.664 -0.6657 -0.8764 -0.1371
  104PC     C32 4620   2.920   4.276   5.752 -0.2030  0.3584  0.1247
  104PC     H2A 4621   2.897   4.229   5.848 -2.2048  1.2709  0.1244
  104PC     H2B 4622   3.025   4.250   5.736 -0.1216 -0.2474  1.4432
  104PC     N31 4623   2.918   4.428   5.770  0.2640 -0.3154 -0.4905
  104PC     C33 4624   2.938   4.494   5.643 -0.4794 -0.4870  0.1597
  104PC     H3A 4625   2.852   4.489   5.576  1.5038 -0.6157 -2.5207
  104PC     H3B 4626   2.969   4.596   5.663 -1.4377 -0.5250  2.1352
  104PC     H3C 4627   3.019   4.435   5.600 -0.0073  1.1431 -1.2721
  104PC     C34 4628   2.790   4.466   5.832  0.4519  0.0547 -0.9066
  104PC     H4A 4629   2.786   4.421   5.931 -0.1317  0.6162 -0.6638
  104PC     H4B 4630   2.792   4.574   5.846  1.7168  0.0249 -0.7462
  104PC     H4C 4631   2.714   4.433   5.761  2.1225 -1.8536 -1.9125
  104PC     C35 4632   3.033   4.474   5.859 -0.1879 -0.1038 -0.0722
  104PC     H5A 4633   3.125   4.427   5.825 -0.3372 -1.6995  1.5148
  104PC     H5B 4634   3.012   4.443   5.962 -1.7035  1.9171  0.2947
  104PC     H5C 4635   3.043   4.582   5.848  1.8158 -0.3685 -1.0883
  104PC     O33 4636   2.856   4.022   5.910  0.1007  0.0075 -0.4349
  104PC     O34 4637   2.837   3.829   5.747  0.3621 -0.5100 -0.2545
  104PC     O21 4638   2.430   3.952   5.491 -0.1353 -0.7378  0.1624
  104PC     C21 4639   2.359   4.063   5.454 -0.4820  0.4363 -0.7834
  104PC     O22 4640   2.405   4.172   5.431  0.2320  0.3057  0.3943
  105OL     C12 4641   2.215   4.031   5.442  0.6421  0.1069  0.0302
  105OL     H2R 4642   2.154   4.119   5.462  0.6889  0.0709  0.3268
  105OL     H2S 4643   2.208   3.951   5.516  4.1438  1.2478  1.8163
  105OL     C13 4644   2.165   3.974   5.311  0.0560 -0.3712 -0.0876
  105OL     H3R 4645   2.251   3.925   5.266  0.4656  1.0454 -0.8840
  105OL     H3S 4646   2.150   4.061   5.248  0.0607 -0.5307 -0.3093
  105OL     C14 4647   2.033   3.885   5.311  0.3215  0.8230  0.2001
  105OL     H4R 4648   1.946   3.932   5.359 -0.9472 -1.9159  0.7854
  105OL     H4S 4649   2.042   3.799   5.378  2.9145  2.3628  2.0058
  105OL     C15 4650   1.997   3.833   5.175 -0.4622  0.9268  0.4776
  105OL     H5R 4651   1.986   3.918   5.107  1.1453 -0.5336 -1.7379
  105OL     H5S 4652   1.902   3.779   5.173 -0.4264  0.8583  0.5730
  105OL     C16 4653   2.097   3.732   5.116 -0.5744 -0.2239 -0.2853
  105OL     H6R 4654   2.100   3.638   5.172  4.0067  1.2327  2.4451
  105OL     H6S 4655   2.198   3.771   5.108  0.0336 -1.8229 -0.8409
  105OL     C17 4656   2.055   3.700   4.975  0.1758 -0.9027  0.1321
  105OL     H7R 4657   2.067   3.794   4.921 -1.9156  1.3100  3.1614
  105OL     H7S 4658   1.949   3.678   4.971 -0.2259  0.9290 -0.0559
  105OL     C18 4659   2.126   3.584   4.906  0.5899  0.1916 -0.3784
  105OL     H8R 4660   2.064   3.553   4.821 -0.3102  0.8408  0.0272
  105OL     H8S 4661   2.129   3.494   4.967 -1.5474 -1.6715 -2.7672
  105OL     C19 4662   2.267   3.633   4.865 -0.3944 -0.3491 -0.0323
  105OL     H9R 4663   2.343   3.624   4.942 -0.0272  0.9878 -0.2165
  105OL    C110 4664   2.304   3.687   4.749  0.3974 -0.9589  0.4238
  105OL    H10R 4665   2.404   3.730   4.743  0.3410 -0.6135  1.6507
  105OL    C111 4666   2.206   3.706   4.630  0.6913  0.0346  0.2417
  105OL    H11R 4667   2.243   3.794   4.576 -1.8166 -0.7589 -3.1194
  105OL    H11S 4668   2.108   3.745   4.662  1.5281  2.7336 -0.1766
  105OL    C112 4669   2.193   3.586   4.538  0.0832 -0.0256  0.1236
  105OL    H12R 4670   2.124   3.610   4.457 -0.4630 -3.0122 -0.4302
  105OL    H12S 4671   2.137   3.513   4.597  1.0487  0.0462  1.1751
  105OL    C113 4672   2.325   3.522   4.474  0.3650  0.7236 -0.0564
  105OL    H13R 4673   2.402   3.490   4.545 -0.9147 -0.5592  0.8316
  105OL    H13S 4674   2.364   3.610   4.423  3.2010 -1.4105 -1.8695
  105OL    C114 4675   2.298   3.408   4.381  0.2173 -0.8539 -0.3252
  105OL    H14R 4676   2.223   3.449   4.313 -0.7480  1.0651  1.7724
  105OL    H14S 4677   2.251   3.328   4.438  0.2796 -0.9351 -0.3867
  105OL    C115 4678   2.421   3.367   4.303 -0.0110  0.5357 -0.1550
  105OL    H15R 4679   2.499   3.331   4.370  1.0827 -1.1590 -2.1983
  105OL    H15S 4680   2.466   3.454   4.254  0.7318 -0.8064 -1.9762
  105OL    C116 4681   2.390   3.263   4.193 -0.3139  1.2325  0.0524
  105OL    H16R 4682   2.290   3.275   4.150  0.1239  0.5725 -1.2100
  105OL    H16S 4683   2.392   3.158   4.224 -1.0019  1.0053 -0.6381
  105OL    C117 4684   2.484   3.282   4.077  0.5571  0.2210  0.6544
  105OL    H17R 4685   2.583   3.284   4.124  0.0328  0.7275  1.7764
  105OL    H17S 4686   2.462   3.374   4.021 -4.2702  0.1356  1.9708
  105OL    C118 4687   2.478   3.160   3.978  0.0611 -0.2622 -0.4210
  105OL    H18R 4688   2.534   3.184   3.887 -0.0901  0.2417 -0.3847
  105OL    H18S 4689   2.374   3.138   3.951 -0.0614  0.9052 -0.9626
  105OL    H18T 4690   2.520   3.067   4.017 -0.9743 -0.8957 -0.7629
  106PA    C116 4691   5.448   0.648   4.094  0.7477  0.0742  0.0548
  106PA    H16R 4692   5.509   0.593   4.021 -0.1699 -2.0899  0.8365
  106PA    H16S 4693   5.516   0.727   4.127 -0.3424  0.0928  2.5103
  106PA    H16T 4694   5.365   0.697   4.043  0.6995  1.2448  1.2218
  106PA    C115 4695   5.408   0.554   4.212  0.5425  0.4927  0.6159
  106PA    H15R 4696   5.377   0.459   4.167 -0.3644  0.9589  0.2426
  106PA    H15S 4697   5.496   0.522   4.268 -0.1469  0.0886  1.4939
  106PA    C114 4698   5.302   0.613   4.296  0.1083 -0.2116  0.2824
  106PA    H14R 4699   5.342   0.706   4.339 -0.6364 -0.5201  1.7250
  106PA    H14S 4700   5.209   0.637   4.244  0.6102 -1.7911 -1.4317
  106PA    C113 4701   5.259   0.525   4.413  0.3013  0.0939 -0.1078
  106PA    H13R 4702   5.344   0.483   4.466 -0.8250  1.5549  3.0688
  106PA    H13S 4703   5.211   0.588   4.488  1.5656  0.3049  0.5512
  106PA    C112 4704   5.148   0.426   4.378  0.6714 -0.0417  0.1630
  106PA    H12R 4705   5.061   0.481   4.342  1.1273  1.4713  1.3075
  106PA    H12S 4706   5.178   0.356   4.300 -1.6644 -0.7630 -0.1782
  106PA    C111 4707   5.114   0.344   4.506 -0.0841  0.0249  0.2687
  106PA    H11R 4708   5.108   0.419   4.586  0.8113  3.2777 -2.4697
  106PA    H11S 4709   5.018   0.292   4.504 -1.7283  2.8288 -2.2378
  106PA    C110 4710   5.220   0.242   4.561 -0.2816  0.1069  0.5589
  106PA    H10R 4711   5.216   0.147   4.506  2.4437 -0.1071  0.5650
  106PA    H10S 4712   5.323   0.276   4.547  0.6539 -2.6895 -0.1800
  106PA     C19 4713   5.197   0.215   4.714 -1.0210  0.6479 -0.8423
  106PA     H9R 4714   5.092   0.188   4.726 -1.1761  1.1239 -1.0902
  106PA     H9S 4715   5.258   0.129   4.742 -2.1406 -0.0321 -0.4020
  106PA     C18 4716   5.241   0.332   4.803 -0.8525  0.0934  0.3132
  106PA     H8R 4717   5.341   0.365   4.775 -0.9068 -0.4348 -0.5325
  106PA     H8S 4718   5.176   0.420   4.799 -0.6379  0.1982 -1.7681
  106PA     C17 4719   5.253   0.281   4.945 -0.3824  0.2560  0.0257
  106PA     H7R 4720   5.154   0.263   4.988 -1.0269 -0.7148 -1.7548
  106PA     H7S 4721   5.305   0.185   4.945 -0.0379  0.4430  0.1165
  106PA     C16 4722   5.333   0.371   5.041 -0.2681 -0.3903  0.7565
  106PA     H6R 4723   5.418   0.417   4.991 -0.8079  0.1533  0.3187
  106PA     H6S 4724   5.260   0.447   5.069  0.0624 -0.4509  1.8142
  106PA     C15 4725   5.380   0.306   5.175  0.2102 -0.0907 -0.0281
  106PA     H5R 4726   5.300   0.313   5.249  0.8205 -2.3631  0.9283
  106PA     H5S 4727   5.396   0.199   5.161 -0.8064 -0.2836  0.1991
  106PA     C14 4728   5.503   0.377   5.239 -0.2732 -0.1329  0.1575
  106PA     H4R 4729   5.579   0.370   5.161  0.5065 -0.1115  0.9009
  106PA     H4S 4730   5.487   0.479   5.274 -1.3770  0.0953 -0.9479
  106PA     C13 4731   5.554   0.301   5.363 -0.6441 -0.0670  0.2496
  106PA     H3R 4732   5.493   0.329   5.449 -1.2843 -1.1300  0.1599
  106PA     H3S 4733   5.541   0.195   5.342  2.0131 -0.7766  1.7584
  106PA     C12 4734   5.700   0.323   5.396  0.3631  0.3040  0.0979
  106PA     H2R 4735   5.760   0.302   5.307  0.2404 -2.9059  0.6675
  106PA     H2S 4736   5.724   0.425   5.426  0.6181  0.1658  0.3776
  107PC     C11 4737   5.753   0.229   5.502 -0.3585 -0.2389  0.5499
  107PC     O12 4738   5.783   0.272   5.614 -0.5334 -0.1988  0.3799
  107PC     O11 4739   5.749   0.099   5.468 -0.0599 -0.4694 -0.5291
  107PC      C1 4740   5.806   0.008   5.567  0.1292 -0.1645  0.2100
  107PC      HR 4741   5.844  -0.078   5.510  0.4076 -0.1768  0.4119
  107PC      HS 4742   5.886   0.057   5.623 -1.6915  0.7493  2.1568
  107PC      C2 4743   5.692  -0.044   5.657  0.6521 -0.9630 -0.3114
  107PC      HX 4744   5.660   0.044   5.714  0.4597 -1.1979 -0.0539
  107PC      C3 4745   5.755  -0.138   5.763  0.0967 -0.2764 -1.4305
  107PC      HA 4746   5.800  -0.221   5.708  1.2628  0.6563 -1.9480
  107PC      HB 4747   5.826  -0.081   5.824  2.1288 -1.7330 -2.3145
  107PC     O31 4748   5.645  -0.184   5.850 -0.7392 -0.1487 -0.0450
  107PC     P31 4749   5.577  -0.090   5.964  0.2736 -0.1451 -0.0041
  107PC     O32 4750   5.489   0.012   5.894  0.4453  0.0159 -0.1043
  107PC     C31 4751   5.346  -0.006   5.893 -0.2359  0.0202  0.9943
  107PC     H1A 4752   5.324  -0.106   5.855  1.9268 -0.6615  1.4026
  107PC     H1B 4753   5.306   0.003   5.994 -1.9359 -1.9175  0.5543
  107PC     C32 4754   5.281   0.098   5.808 -0.2329  0.4012 -0.0405
  107PC     H2A 4755   5.296   0.087   5.700  0.1855 -1.4085  0.1554
  107PC     H2B 4756   5.176   0.106   5.835 -0.6350  1.2286 -1.7094
  107PC     N31 4757   5.318   0.238   5.840 -0.2096 -0.3759 -0.7165
  107PC     C33 4758   5.227   0.326   5.765  0.3819 -0.4198  0.1683
  107PC     H3A 4759   5.273   0.419   5.732 -0.1101  0.0952  0.8927
  107PC     H3B 4760   5.202   0.273   5.673 -3.2712  2.1145 -0.5318
  107PC     H3C 4761   5.141   0.363   5.822 -0.4278  0.8111 -1.7419
  107PC     C34 4762   5.296   0.275   5.980 -0.2961  0.5410 -0.2622
  107PC     H4A 4763   5.187   0.276   5.992 -0.5012  2.3436 -1.8845
  107PC     H4B 4764   5.335   0.200   6.049 -0.2688  0.1464 -0.7009
  107PC     H4C 4765   5.343   0.373   5.992 -0.5803  0.4759  1.7246
  107PC     C35 4766   5.456   0.280   5.789  0.0044  0.4650 -0.5005
  107PC     H5A 4767   5.537   0.224   5.836  0.1301  0.5501 -0.6138
  107PC     H5B 4768   5.465   0.387   5.812 -1.9417  0.4584  0.4759
  107PC     H5C 4769   5.455   0.255   5.683  0.6092 -0.4516 -0.2929
  107PC     O33 4770   5.486  -0.170   6.050  0.0137  0.1824  0.5637
  107PC     O34 4771   5.684  -0.013   6.030 -0.2393 -0.1154  0.0781
  107PC     O21 4772   5.593  -0.115   5.579 -0.4713 -0.0196  0.0807
  107PC     C21 4773   5.480  -0.051   5.548 -0.1061  0.1637  0.0829
  107PC     O22 4774   5.471   0.072   5.551  0.0755 -0.3551 -0.1236
  108OL     C12 4775   5.374  -0.142   5.493 -0.1509 -0.1534 -0.7764
  108OL     H2R 4776   5.329  -0.191   5.579  0.6111  0.8031  0.1850
  108OL     H2S 4777   5.426  -0.221   5.437  2.2877  0.2104  0.8226
  108OL     C13 4778   5.269  -0.067   5.414  0.4043  0.4962 -0.4806
  108OL     H3R 4779   5.309   0.004   5.341  1.1199 -0.5946 -1.1801
  108OL     H3S 4780   5.203  -0.007   5.477 -2.1041 -1.3894 -1.1703
  108OL     C14 4781   5.187  -0.160   5.323 -0.7777 -0.0095 -1.1132
  108OL     H4R 4782   5.126  -0.228   5.383 -0.1724  0.6974  0.3489
  108OL     H4S 4783   5.260  -0.223   5.271 -0.9841 -2.2529  1.1505
  108OL     C15 4784   5.102  -0.089   5.224 -0.2570 -0.7923 -1.0829
  108OL     H5R 4785   5.171  -0.028   5.164  1.2426 -0.5093  0.8146
  108OL     H5S 4786   5.036  -0.017   5.273  0.9773  1.1398 -2.1182
  108OL     C16 4787   5.027  -0.189   5.140  0.5000  0.3197  0.4493
  108OL     H6R 4788   4.960  -0.136   5.072  2.1139  0.7504 -0.8724
  108OL     H6S 4789   4.966  -0.243   5.213 -0.2445  0.9336  0.2976
  108OL     C17 4790   5.102  -0.280   5.044 -0.3210 -0.4361 -0.0772
  108OL     H7R 4791   5.039  -0.363   5.015  1.4488 -2.2237  0.9253
  108OL     H7S 4792   5.193  -0.322   5.088 -0.9423 -1.9048 -0.1716
  108OL     C18 4793   5.144  -0.200   4.920 -0.2114 -0.6366 -0.0975
  108OL     H8R 4794   5.161  -0.093   4.933  0.4378 -0.2595 -3.2127
  108OL     H8S 4795   5.062  -0.212   4.849 -0.6768 -0.7139  0.4465
  108OL     C19 4796   5.271  -0.258   4.861  0.1963  0.2227 -0.6471
  108OL     H9R 4797   5.333  -0.320   4.925  0.7218  3.1919  1.9836
  108OL    C110 4798   5.295  -0.261   4.732  0.0806  0.0407 -0.0287
  108OL    H10R 4799   5.388  -0.303   4.693 -0.0916  0.9725 -1.5371
  108OL    C111 4800   5.208  -0.192   4.628  0.3817 -0.0590 -0.0242
  108OL    H11R 4801   5.185  -0.093   4.668 -0.2690 -0.2323  0.0443
  108OL    H11S 4802   5.116  -0.251   4.621  0.3386  0.0192 -0.1246
  108OL    C112 4803   5.277  -0.191   4.488 -0.2521  0.4274 -0.0610
  108OL    H12R 4804   5.385  -0.175   4.497 -0.1667  0.4791 -1.1273
  108OL    H12S 4805   5.245  -0.097   4.442  1.0175  3.5229  4.6581
  108OL    C113 4806   5.240  -0.312   4.388  0.2091  0.4505 -0.4140
  108OL    H13R 4807   5.131  -0.305   4.387  0.2032  0.4775 -1.9692
  108OL    H13S 4808   5.267  -0.404   4.442  0.6707  2.4056  2.9901
  108OL    C114 4809   5.285  -0.296   4.241  0.2268  0.1320  0.0009
  108OL    H14R 4810   5.228  -0.370   4.185  0.3066  1.2026 -1.5595
  108OL    H14S 4811   5.389  -0.324   4.229  0.0297  0.0883 -1.8808
  108OL    C115 4812   5.244  -0.169   4.170  0.4883 -0.9555  0.3170
  108OL    H15R 4813   5.267  -0.171   4.064 -0.3934  0.1727  0.0845
  108OL    H15S 4814   5.304  -0.085   4.204 -0.2216  0.3042 -1.4097
  108OL    C116 4815   5.089  -0.130   4.190 -0.3841 -0.3290  0.3562
  108OL    H16R 4816   5.058  -0.126   4.295 -3.0250  0.0256 -0.3576
  108OL    H16S 4817   5.035  -0.217   4.151  0.7996 -1.4303  1.0713
  108OL    C117 4818   5.047  -0.012   4.107 -0.6784  0.2493  0.2820
  108OL    H17R 4819   4.938  -0.005   4.112 -0.9368 -2.1597 -0.7196
  108OL    H17S 4820   5.083  -0.026   4.005  0.4303  3.5728  0.1092
  108OL    C118 4821   5.106   0.122   4.152  0.4509  0.2830 -0.0092
  108OL    H18R 4822   5.215   0.123   4.150  0.4792  1.5178  0.7935
  108OL    H18S 4823   5.065   0.161   4.246  1.4030  2.2353 -0.3509
  108OL    H18T 4824   5.089   0.201   4.078 -0.8474 -2.2819 -2.6146
  109PA    C116 4825   3.751   3.036   4.090  0.3592 -0.5275 -0.1656
  109PA    H16R 4826   3.754   3.042   3.981  0.4330  0.2621 -0.1239
  109PA    H16S 4827   3.841   2.984   4.122  1.0680 -0.5453 -2.0473
  109PA    H16T 4828   3.733   3.138   4.126 -1.6541 -0.0920 -2.1461
  109PA    C115 4829   3.624   2.968   4.137 -0.2397 -0.7777  0.4453
  109PA    H15R 4830   3.622   2.878   4.074  0.0387 -0.5005  0.0338
  109PA    H15S 4831   3.644   2.924   4.235  0.2032 -0.2150  0.6079
  109PA    C114 4832   3.488   3.038   4.131 -0.2094 -0.1952 -0.3784
  109PA    H14R 4833   3.485   3.129   4.192  0.1569  1.1418 -2.2708
  109PA    H14S 4834   3.469   3.072   4.029 -2.1393  1.7018  0.5138
  109PA    C113 4835   3.369   2.952   4.174  1.1760 -0.2363 -0.2710
  109PA    H13R 4836   3.370   2.867   4.106  2.0131  0.6457 -1.3990
  109PA    H13S 4837   3.389   2.917   4.276 -0.9222  1.0886  0.6588
  109PA    C112 4838   3.234   3.037   4.175  0.2915  1.1012  0.0427
  109PA    H12R 4839   3.234   3.098   4.265 -0.7319 -0.8404  1.4462
  109PA    H12S 4840   3.229   3.100   4.086 -1.0507 -0.7840 -1.2940
  109PA    C111 4841   3.097   2.959   4.184  1.2128  0.0299 -0.2741
  109PA    H11R 4842   3.084   2.908   4.088  0.6830 -0.2066 -0.0775
  109PA    H11S 4843   3.090   2.885   4.263  1.2047  0.4516  0.1235
  109PA    C110 4844   2.984   3.064   4.204 -0.2265 -0.1876 -0.8912
  109PA    H10R 4845   3.015   3.119   4.293  0.9877 -0.8010 -0.9091
  109PA    H10S 4846   2.999   3.142   4.129 -0.8513  1.1400  0.3093
  109PA     C19 4847   2.837   3.010   4.210  0.2346 -0.3335 -0.4658
  109PA     H9R 4848   2.773   3.096   4.229  2.9922  1.6366  0.6442
  109PA     H9S 4849   2.817   2.975   4.109 -0.0735  0.1596 -0.5787
  109PA     C18 4850   2.810   2.896   4.312  0.3593 -0.2574  0.0405
  109PA     H8R 4851   2.706   2.870   4.293  0.0377  1.0249 -0.0877
  109PA     H8S 4852   2.867   2.808   4.282  0.0138  0.2364 -2.1964
  109PA     C17 4853   2.826   2.939   4.457 -0.0245 -0.2440 -0.4010
  109PA     H7R 4854   2.797   2.860   4.527  0.2868 -0.1608 -0.1747
  109PA     H7S 4855   2.933   2.949   4.474 -0.0471 -0.8019  0.1166
  109PA     C16 4856   2.752   3.070   4.494  0.0532  0.5826  0.4021
  109PA     H6R 4857   2.798   3.158   4.448  2.2378 -1.3454 -1.3356
  109PA     H6S 4858   2.650   3.065   4.456 -0.0130  0.9043  0.5324
  109PA     C15 4859   2.752   3.109   4.647 -0.3239 -0.4362 -0.0171
  109PA     H5R 4860   2.725   3.022   4.707  0.1628 -0.7705 -0.2790
  109PA     H5S 4861   2.853   3.143   4.672  0.6021 -2.1011 -1.3087
  109PA     C14 4862   2.662   3.233   4.672 -0.3253  0.1800  0.5025
  109PA     H4R 4863   2.709   3.329   4.649  0.1822 -0.2006 -0.1041
  109PA     H4S 4864   2.580   3.244   4.600  0.8843 -0.8213 -1.1160
  109PA     C13 4865   2.588   3.220   4.809  0.3204 -0.8562  0.3627
  109PA     H3R 4866   2.508   3.294   4.821  1.0709 -0.0924  0.6898
  109PA     H3S 4867   2.534   3.125   4.815 -1.5143  0.2326  5.2361
  109PA     C12 4868   2.661   3.229   4.941  0.3373  0.3744  0.6019
  109PA     H2R 4869   2.753   3.171   4.928 -0.4153 -0.5359 -0.9857
  109PA     H2S 4870   2.677   3.328   4.983 -0.2791  0.7228  0.0442
  110PC     C11 4871   2.581   3.159   5.050  0.6390 -0.4477 -0.7684
  110PC     O12 4872   2.554   3.041   5.046  0.4173  0.4421 -0.2076
  110PC     O11 4873   2.560   3.233   5.163 -0.1249 -0.1600 -0.1767
  110PC      C1 4874   2.547   3.157   5.293  0.1045 -0.2776 -0.5367
  110PC      HR 4875   2.483   3.212   5.362  3.4622 -0.1352  2.7949
  110PC      HS 4876   2.503   3.059   5.276 -0.1960 -0.2744  0.1988
  110PC      C2 4877   2.684   3.150   5.369 -0.3170  0.5600 -0.6564
  110PC      HX 4878   2.681   3.075   5.449  3.3744  0.2158 -0.6476
  110PC      C3 4879   2.717   3.286   5.429  0.4446  0.5184  0.2728
  110PC      HA 4880   2.731   3.353   5.344  2.7312  0.2300  0.3399
  110PC      HB 4881   2.630   3.318   5.487  0.7166  1.7102  0.0597
  110PC     O31 4882   2.840   3.275   5.509 -0.5822  0.8208  0.0292
  110PC     P31 4883   2.834   3.296   5.666  0.1731  0.1788 -0.1711
  110PC     O32 4884   2.746   3.167   5.712 -0.0503 -0.5793 -0.5546
  110PC     C31 4885   2.811   3.033   5.729 -0.9588 -0.0415  0.2315
  110PC     H1A 4886   2.748   2.951   5.693  1.3291 -0.7161 -2.5400
  110PC     H1B 4887   2.898   3.020   5.664 -1.1783 -0.8693  0.0899
  110PC     C32 4888   2.860   3.016   5.873 -0.8450  0.0092  0.1019
  110PC     H2A 4889   2.905   2.918   5.887 -0.5621  0.2177  0.6410
  110PC     H2B 4890   2.939   3.089   5.892  1.3856 -2.4307  0.6021
  110PC     N31 4891   2.755   3.027   5.982 -0.7056  0.1364 -0.2240
  110PC     C33 4892   2.809   2.968   6.105  0.1701  0.4068  0.2156
  110PC     H3A 4893   2.735   2.971   6.184 -0.0404 -0.8643  0.0885
  110PC     H3B 4894   2.837   2.864   6.090 -0.1365  0.1628  1.2726
  110PC     H3C 4895   2.891   3.034   6.136  0.7418  0.7161 -1.7868
  110PC     C34 4896   2.719   3.170   6.000  0.2833 -0.2791  0.0905
  110PC     H4A 4897   2.648   3.171   6.083  2.1247 -2.5657  1.8277
  110PC     H4B 4898   2.804   3.226   6.039 -0.6271 -0.3891  2.4238
  110PC     H4C 4899   2.668   3.214   5.914  0.4605  2.3729  1.2108
  110PC     C35 4900   2.626   2.955   5.947 -0.4061 -0.3662  0.4992
  110PC     H5A 4901   2.581   3.019   5.871  0.9527  0.4230  0.3171
  110PC     H5B 4902   2.562   2.955   6.035 -1.3324  2.7674 -0.0621
  110PC     H5C 4903   2.651   2.855   5.910 -1.2459 -1.2242  2.1015
  110PC     O33 4904   2.972   3.282   5.715  0.4586  0.1106 -1.1449
  110PC     O34 4905   2.763   3.420   5.697  0.1201 -0.4271 -0.0062
  110PC     O21 4906   2.792   3.106   5.286 -0.2389  0.8722 -0.2320
  110PC     C21 4907   2.815   2.970   5.272 -0.6316  0.2069  0.2414
  110PC     O22 4908   2.764   2.883   5.346  0.5843 -0.6590 -0.9969
  111OL     C12 4909   2.908   2.934   5.160 -0.2562 -0.0822  0.0431
  111OL     H2R 4910   3.004   2.971   5.196  0.4516 -1.1717 -0.6414
  111OL     H2S 4911   2.883   2.989   5.069  0.2481  1.3491  0.7579
  111OL     C13 4912   2.918   2.785   5.131  0.2575  0.1563  0.5364
  111OL     H3R 4913   2.817   2.745   5.122  0.0268  1.1606 -2.0012
  111OL     H3S 4914   2.973   2.746   5.217  0.7151  1.5556  0.9110
  111OL     C14 4915   2.985   2.748   4.996 -0.1608 -0.6148  0.4001
  111OL     H4R 4916   3.091   2.773   5.005 -0.3132 -0.4427  2.0215
  111OL     H4S 4917   2.944   2.800   4.910 -0.9348 -0.2737  0.9609
  111OL     C15 4918   2.977   2.600   4.971 -0.5985  1.2212 -0.3556
  111OL     H5R 4919   2.875   2.583   4.936 -0.1332 -1.2516 -0.6845
  111OL     H5S 4920   2.991   2.553   5.069 -0.7325  0.4833 -0.6843
  111OL     C16 4921   3.066   2.541   4.862  0.0828 -0.3016  0.9267
  111OL     H6R 4922   3.044   2.435   4.851  1.4183 -0.4355 -1.1417
  111OL     H6S 4923   3.172   2.548   4.886  0.1067  0.9791  0.5431
  111OL     C17 4924   3.050   2.602   4.724  0.0459  0.1458 -0.0950
  111OL     H7R 4925   3.070   2.710   4.726 -0.8364  0.3204 -0.1766
  111OL     H7S 4926   2.946   2.599   4.690 -0.7556 -1.1764  2.2882
  111OL     C18 4927   3.132   2.538   4.611 -0.2533 -0.3391  0.1463
  111OL     H8R 4928   3.100   2.434   4.599  0.1284 -0.4699  0.2253
  111OL     H8S 4929   3.237   2.540   4.643  0.1087  0.7878 -1.0263
  111OL     C19 4930   3.100   2.625   4.485 -0.6541 -0.8949  0.4350
  111OL     H9R 4931   3.160   2.715   4.479 -0.6306 -0.8231  1.5844
  111OL    C110 4932   3.021   2.598   4.375 -0.1780 -0.2086 -0.3853
  111OL    H10R 4933   3.009   2.662   4.288  0.6898 -0.1129 -0.4380
  111OL    C111 4934   2.921   2.483   4.379  0.3791  0.1573 -0.6732
  111OL    H11R 4935   2.938   2.431   4.474  4.3760  1.7156 -0.3559
  111OL    H11S 4936   2.948   2.414   4.299 -0.7230  0.7785 -1.6198
  111OL    C112 4937   2.774   2.527   4.357  0.4286 -0.5054 -0.2911
  111OL    H12R 4938   2.765   2.551   4.251  0.9435 -1.1224 -0.4770
  111OL    H12S 4939   2.750   2.615   4.418  2.0706  0.1542 -0.5444
  111OL    C113 4940   2.674   2.414   4.367 -0.3157  0.5774  0.4341
  111OL    H13R 4941   2.681   2.375   4.469 -0.6814 -1.0442 -0.1412
  111OL    H13S 4942   2.684   2.331   4.297  0.1450  0.5864  0.4862
  111OL    C114 4943   2.531   2.465   4.329 -0.0575 -0.6692  0.4674
  111OL    H14R 4944   2.532   2.497   4.225 -2.6305  0.0912  0.5923
  111OL    H14S 4945   2.511   2.552   4.392 -0.8740 -0.1340 -0.4917
  111OL    C115 4946   2.427   2.353   4.349 -0.4230  0.2131  0.7443
  111OL    H15R 4947   2.469   2.264   4.303 -0.1593  1.3178 -1.2690
  111OL    H15S 4948   2.339   2.378   4.289 -0.6905 -0.7764  0.7165
  111OL    C116 4949   2.390   2.328   4.494 -0.2324  0.2095 -0.3943
  111OL    H16R 4950   2.355   2.424   4.532 -1.3543 -1.0643  1.9564
  111OL    H16S 4951   2.481   2.298   4.548  0.7970  0.0680 -2.1157
  111OL    C117 4952   2.288   2.214   4.520  0.3117  0.1931  0.4426
  111OL    H17R 4953   2.331   2.118   4.490 -1.4935 -0.1204 -1.3524
  111OL    H17S 4954   2.199   2.227   4.458  0.7948  0.0692 -0.2843
  111OL    C118 4955   2.254   2.207   4.670 -0.5038 -0.0972  0.4885
  111OL    H18R 4956   2.176   2.131   4.682  0.1790 -0.8263  0.3509
  111OL    H18S 4957   2.218   2.300   4.716 -0.1874 -0.8540  2.3760
  111OL    H18T 4958   2.350   2.188   4.718  0.5792  1.1292 -1.1206
  112PA    C116 4959   3.529   1.627   5.331  0.3175  0.2092  0.5306
  112PA    H16R 4960   3.606   1.685   5.280 -1.2696  2.3034  0.4167
  112PA    H16S 4961   3.565   1.524   5.344  0.6977  0.0356 -1.5754
  112PA    H16T 4962   3.529   1.679   5.427  2.3833  0.5318  0.3979
  112PA    C115 4963   3.392   1.634   5.262  0.2158 -0.3779  0.3750
  112PA    H15R 4964   3.398   1.600   5.158  1.5161 -0.0463  0.3229
  112PA    H15S 4965   3.326   1.573   5.323  0.8817  0.7405  2.3238
  112PA    C114 4966   3.326   1.778   5.263  0.1468 -0.7369 -0.3507
  112PA    H14R 4967   3.342   1.837   5.353 -0.1574 -1.0797 -0.0721
  112PA    H14S 4968   3.378   1.836   5.186 -1.1098  1.8924  0.6728
  112PA    C113 4969   3.177   1.780   5.226 -0.1787 -0.5217 -0.2226
  112PA    H13R 4970   3.123   1.716   5.296 -0.3808 -1.7164 -1.4109
  112PA    H13S 4971   3.143   1.882   5.240  0.3481 -0.5000  0.9834
  112PA    C112 4972   3.140   1.738   5.080 -0.5005 -0.2115 -0.1392
  112PA    H12R 4973   3.170   1.809   5.002 -2.6562 -0.7380 -1.5486
  112PA    H12S 4974   3.190   1.645   5.050 -0.4042 -0.0128 -0.6035
  112PA    C111 4975   2.996   1.711   5.055  0.7082  0.2721  0.3661
  112PA    H11R 4976   2.989   1.670   4.954  2.2489  1.3675 -0.2008
  112PA    H11S 4977   2.955   1.630   5.117  0.0661 -2.8923 -3.7172
  112PA    C110 4978   2.910   1.845   5.066 -0.4861  0.4895 -0.3338
  112PA    H10R 4979   2.927   1.902   5.157  0.0147  1.5597 -1.0845
  112PA    H10S 4980   2.946   1.905   4.983  0.7247  0.0720 -0.1253
  112PA     C19 4981   2.762   1.809   5.054  0.5470 -0.4431 -0.6299
  112PA     H9R 4982   2.751   1.740   4.970  0.0617 -2.1438  0.7838
  112PA     H9S 4983   2.731   1.749   5.140  0.1356  1.1335  0.3704
  112PA     C18 4984   2.669   1.932   5.048 -0.5469  0.2188  0.0349
  112PA     H8R 4985   2.675   2.001   5.133  1.0790 -0.5195  0.5552
  112PA     H8S 4986   2.689   1.990   4.958 -2.1969  0.1989 -0.3824
  112PA     C17 4987   2.526   1.889   5.040  1.0044 -0.1811  0.2200
  112PA     H7R 4988   2.508   1.800   4.981 -1.1201 -1.5123  2.6748
  112PA     H7S 4989   2.490   1.865   5.140  1.3119  0.1249  0.4087
  112PA     C16 4990   2.437   2.000   4.977  0.7217 -0.6230 -0.2327
  112PA     H6R 4991   2.439   2.092   5.035 -1.7126 -0.6406 -0.0273
  112PA     H6S 4992   2.481   2.039   4.885 -1.1126  0.7901 -0.5647
  112PA     C15 4993   2.284   1.974   4.980  0.4128 -0.0400 -0.4580
  112PA     H5R 4994   2.231   2.058   4.936 -0.3160  0.0287  0.5236
  112PA     H5S 4995   2.265   1.888   4.915  2.4377 -0.7785 -0.1441
  112PA     C14 4996   2.218   1.954   5.121 -0.4678  0.4589  0.0334
  112PA     H4R 4997   2.250   1.853   5.144  1.2508  0.9739  0.0584
  112PA     H4S 4998   2.260   2.028   5.190  0.1525 -0.8986  1.1621
  112PA     C13 4999   2.065   1.963   5.120  0.3426  0.3568 -0.2785
  112PA     H3R 5000   2.019   2.056   5.086  0.4111 -1.0935 -4.9477
  112PA     H3S 5001   2.033   1.886   5.049  0.5892 -0.3745  0.3927
  112PA     C12 5002   1.999   1.926   5.249 -0.2968 -0.5454 -0.1391
  112PA     H2R 5003   1.890   1.933   5.250 -0.5565 -2.4784  3.7010
  112PA     H2S 5004   2.022   1.824   5.282  3.2784 -0.8373 -2.9226
  113PC     C11 5005   2.056   2.010   5.364 -0.1118  0.5789  0.2005
  113PC     O12 5006   2.159   1.984   5.428 -0.4594  0.0429  0.9624
  113PC     O11 5007   1.978   2.117   5.391  0.0490 -0.6695 -0.4342
  113PC      C1 5008   1.993   2.175   5.523  0.2945 -0.0038 -0.2311
  113PC      HR 5009   1.902   2.230   5.549 -1.1177 -0.3838 -3.7517
  113PC      HS 5010   2.007   2.088   5.587 -1.2916 -0.1893 -0.0890
  113PC      C2 5011   2.124   2.260   5.531 -0.3161  0.2224  0.4097
  113PC      HX 5012   2.209   2.193   5.520  0.5693  0.9570  2.2075
  113PC      C3 5013   2.132   2.329   5.667  0.1401  0.7161 -0.0596
  113PC      HA 5014   2.221   2.391   5.684  0.7957  0.3307 -1.8506
  113PC      HB 5015   2.043   2.391   5.668 -1.8983 -2.0058  2.0408
  113PC     O31 5016   2.123   2.239   5.781  0.0036 -0.0038  0.1386
  113PC     P31 5017   2.244   2.157   5.825 -0.2245  0.3984 -0.3024
  113PC     O32 5018   2.254   2.038   5.724 -0.0761  0.4469  0.6946
  113PC     C31 5019   2.185   1.912   5.735  0.3512 -0.5322 -0.4578
  113PC     H1A 5020   2.117   1.933   5.817 -0.5950  2.5921 -1.8933
  113PC     H1B 5021   2.127   1.896   5.643 -0.3624  1.5840 -0.4144
  113PC     C32 5022   2.277   1.789   5.749 -0.3291 -0.6629  0.2371
  113PC     H2A 5023   2.349   1.765   5.670 -2.0272 -1.6548 -1.0998
  113PC     H2B 5024   2.337   1.824   5.833 -2.3782 -1.5510  2.1810
  113PC     N31 5025   2.204   1.661   5.776  0.6386 -0.0292  0.5243
  113PC     C33 5026   2.293   1.572   5.847 -0.5218 -0.3551  0.9555
  113PC     H3A 5027   2.319   1.614   5.944 -0.3894 -0.3562  0.9223
  113PC     H3B 5028   2.243   1.475   5.846 -2.2956  0.5165 -1.0447
  113PC     H3C 5029   2.386   1.560   5.791 -0.9984 -1.5618  0.3957
  113PC     C34 5030   2.074   1.671   5.852  0.1024  0.7138 -0.2512
  113PC     H4A 5031   2.029   1.574   5.874  1.4353  0.7645  3.4671
  113PC     H4B 5032   2.085   1.718   5.950 -2.8030 -2.9836  2.1709
  113PC     H4C 5033   2.003   1.726   5.790  0.4008  2.1903  0.6845
  113PC     C35 5034   2.177   1.604   5.640 -0.0622  0.0004  0.3912
  113PC     H5A 5035   2.121   1.510   5.643  0.5682 -0.4391  4.3368
  113PC     H5B 5036   2.270   1.607   5.583  0.0381 -2.1991  0.3447
  113PC     H5C 5037   2.106   1.664   5.584 -1.2620 -2.1373 -0.4906
  113PC     O33 5038   2.364   2.237   5.804 -0.5188 -0.5812  0.7198
  113PC     O34 5039   2.221   2.092   5.959  0.4154 -0.4281  0.1419
  113PC     O21 5040   2.135   2.370   5.432  0.7721 -0.1479  0.1343
  113PC     C21 5041   2.249   2.427   5.393 -0.4464  0.7545 -1.0957
  113PC     O22 5042   2.356   2.388   5.434 -0.5981  0.3263 -0.4871
  114OL     C12 5043   2.229   2.551   5.307  0.0848  0.3945  0.3677
  114OL     H2R 5044   2.280   2.641   5.343 -0.7607 -0.1564  3.2488
  114OL     H2S 5045   2.123   2.573   5.296 -0.3427 -0.5156  2.1882
  114OL     C13 5046   2.288   2.511   5.166 -0.6099 -0.0008 -0.3871
  114OL     H3R 5047   2.394   2.488   5.181 -0.8175 -1.0888 -0.4855
  114OL     H3S 5048   2.280   2.600   5.103 -1.5633  0.2839  0.1253
  114OL     C14 5049   2.214   2.394   5.092  0.5567  0.1161 -0.4867
  114OL     H4R 5050   2.237   2.307   5.155 -1.5290  0.4093  0.7734
  114OL     H4S 5051   2.256   2.381   4.992 -2.6751  1.5950 -2.1776
  114OL     C15 5052   2.068   2.407   5.078  0.2275  0.1606 -0.4242
  114OL     H5R 5053   2.021   2.417   5.176 -0.9808  1.2126 -1.0855
  114OL     H5S 5054   2.026   2.324   5.022 -0.4722 -0.7314  1.3802
  114OL     C16 5055   2.021   2.544   5.017  0.1694  0.1671  0.4427
  114OL     H6R 5056   2.041   2.634   5.076 -1.5269  1.9901 -1.6158
  114OL     H6S 5057   1.914   2.563   5.010  0.4672  1.7870 -0.2674
  114OL     C17 5058   2.075   2.576   4.874  0.4601  0.9347 -0.7144
  114OL     H7R 5059   2.013   2.518   4.805 -2.0195  0.7939  1.4736
  114OL     H7S 5060   2.176   2.536   4.866  1.7193  3.5649  0.7313
  114OL     C18 5061   2.076   2.719   4.827  1.1819  0.7432 -0.3776
  114OL     H8R 5062   1.976   2.760   4.844  0.2658 -1.8373  0.8560
  114OL     H8S 5063   2.103   2.726   4.721  1.1157  2.3807 -0.3133
  114OL     C19 5064   2.181   2.803   4.901 -0.0974 -0.6192 -0.4854
  114OL     H9R 5065   2.148   2.851   4.993 -0.3984  0.0465 -0.9359
  114OL    C110 5066   2.305   2.830   4.860 -0.3665  0.1117 -0.0830
  114OL    H10R 5067   2.377   2.884   4.921  2.1534  0.2502 -2.9161
  114OL    C111 5068   2.376   2.754   4.750  0.2791 -0.1234  0.6397
  114OL    H11R 5069   2.355   2.813   4.660  0.5193  0.2446  0.8215
  114OL    H11S 5070   2.347   2.650   4.737  2.2326 -0.8225  1.4779
  114OL    C112 5071   2.529   2.757   4.770 -0.3238 -0.1926  0.0916
  114OL    H12R 5072   2.562   2.861   4.776 -0.0812 -0.0926 -1.9820
  114OL    H12S 5073   2.574   2.732   4.673 -0.8516 -0.7769 -0.0079
  114OL    C113 5074   2.603   2.696   4.886 -0.3574 -0.1917  0.4705
  114OL    H13R 5075   2.587   2.756   4.975 -0.8576 -1.2089  1.0853
  114OL    H13S 5076   2.709   2.720   4.871 -0.1881 -0.9850  0.3611
  114OL    C114 5077   2.577   2.551   4.914 -0.0314 -0.0810 -0.1606
  114OL    H14R 5078   2.470   2.547   4.937 -0.5642  1.4165 -2.1045
  114OL    H14S 5079   2.635   2.514   4.999  0.0098 -1.6809 -0.8578
  114OL    C115 5080   2.607   2.478   4.780 -0.6552  0.3740 -0.1200
  114OL    H15R 5081   2.706   2.511   4.748 -0.0814 -0.6556  0.5069
  114OL    H15S 5082   2.535   2.512   4.706  0.1522 -1.3290 -1.7743
  114OL    C116 5083   2.612   2.326   4.820 -0.1442 -0.3447  0.1679
  114OL    H16R 5084   2.508   2.292   4.825 -0.2637 -0.5153 -2.4940
  114OL    H16S 5085   2.657   2.313   4.919  0.3754  1.9037  0.2970
  114OL    C117 5086   2.692   2.229   4.735  0.4980  0.3222 -0.0749
  114OL    H17R 5087   2.685   2.252   4.628 -1.9824 -2.0484 -0.5283
  114OL    H17S 5088   2.653   2.127   4.743 -1.1760  1.0495  1.7279
  114OL    C118 5089   2.836   2.224   4.769 -0.1896 -0.5617  0.3020
  114OL    H18R 5090   2.872   2.324   4.747 -1.0558 -0.1116  0.8719
  114OL    H18S 5091   2.891   2.156   4.703 -0.6253 -0.7300  0.1038
  114OL    H18T 5092   2.852   2.190   4.871  0.2012  0.4495  0.5841
  115PA    C116 5093   7.269   0.846   3.889  0.1281 -0.2013 -0.8773
  115PA    H16R 5094   7.377   0.831   3.901 -0.0792 -0.2219  1.4733
  115PA    H16S 5095   7.253   0.941   3.837 -2.0091  0.5133  0.9784
  115PA    H16T 5096   7.225   0.762   3.835 -2.1460  2.1727 -3.0009
  115PA    C115 5097   7.211   0.842   4.037  0.0726  0.4991 -0.6081
  115PA    H15R 5098   7.266   0.900   4.111  1.1483 -1.3679  0.1237
  115PA    H15S 5099   7.103   0.856   4.037  0.2639  2.4284  1.2558
  115PA    C114 5100   7.225   0.699   4.094  0.1344  0.4318 -0.2651
  115PA    H14R 5101   7.210   0.624   4.016 -3.2131  0.1918  0.4628
  115PA    H14S 5102   7.324   0.688   4.139 -1.1730 -0.3913  2.6232
  115PA    C113 5103   7.133   0.654   4.209 -0.2642 -0.3033 -0.1067
  115PA    H13R 5104   7.034   0.631   4.171 -0.2748 -1.0424  0.3449
  115PA    H13S 5105   7.176   0.555   4.228 -1.5915 -1.1035 -1.1074
  115PA    C112 5106   7.131   0.736   4.335  0.3708 -0.7527 -0.7242
  115PA    H12R 5107   7.228   0.770   4.371 -0.8933  0.3814  1.8745
  115PA    H12S 5108   7.084   0.833   4.318 -1.3356 -1.1623  1.2913
  115PA    C111 5109   7.049   0.676   4.454  0.0538  0.5235 -0.1245
  115PA    H11R 5110   7.028   0.753   4.528 -0.5427  1.3142 -1.1051
  115PA    H11S 5111   6.953   0.632   4.423 -0.1946 -0.3210  1.7219
  115PA    C110 5112   7.126   0.549   4.505  1.0361 -1.2166  0.2225
  115PA    H10R 5113   7.135   0.479   4.422 -0.8558 -2.2064  0.7908
  115PA    H10S 5114   7.224   0.575   4.545  0.9498 -0.2785 -0.1392
  115PA     C19 5115   7.045   0.474   4.616 -0.5286  0.2331 -0.8182
  115PA     H9R 5116   6.937   0.484   4.607 -0.5143  2.3998  0.6743
  115PA     H9S 5117   7.078   0.370   4.608  0.2721  0.4292 -0.1711
  115PA     C18 5118   7.083   0.519   4.762  0.3729 -0.4917  0.9845
  115PA     H8R 5119   7.189   0.505   4.786  0.5047  0.6155  1.0704
  115PA     H8S 5120   7.066   0.627   4.759  0.9745 -0.4054  0.3761
  115PA     C17 5121   6.991   0.472   4.879 -0.1975  0.0245  0.1080
  115PA     H7R 5122   7.037   0.513   4.969 -0.9798 -0.4890  0.7614
  115PA     H7S 5123   6.894   0.520   4.862  0.3383  0.3739 -2.3824
  115PA     C16 5124   6.957   0.316   4.883  0.0522  0.1636 -0.5095
  115PA     H6R 5125   6.882   0.285   4.810 -0.1290 -1.1610  0.2010
  115PA     H6S 5126   7.043   0.256   4.850 -0.3634 -0.2862 -0.7840
  115PA     C15 5127   6.912   0.268   5.020  0.4015  0.2055 -0.2511
  115PA     H5R 5128   6.997   0.262   5.089  1.8274  1.6344 -1.7774
  115PA     H5S 5129   6.849   0.343   5.068  0.2062 -0.4774  0.5986
  115PA     C14 5130   6.831   0.136   5.031 -0.0158 -0.3605 -0.2167
  115PA     H4R 5131   6.729   0.165   5.057  0.6704  0.7469  1.4182
  115PA     H4S 5132   6.826   0.084   4.935  0.0076  1.0244 -0.9835
  115PA     C13 5133   6.895   0.038   5.131  0.0497  0.1169  0.0060
  115PA     H3R 5134   6.995   0.006   5.098  0.6327  0.5666  1.2851
  115PA     H3S 5135   6.904   0.082   5.230  0.6809 -0.5400  0.2496
  115PA     C12 5136   6.811  -0.089   5.155 -0.8001  0.1618  0.1349
  115PA     H2R 5137   6.710  -0.070   5.194 -0.9366  0.2799 -0.2697
  115PA     H2S 5138   6.809  -0.158   5.071 -1.6719  0.5559 -0.1803
  116PC     C11 5139   6.881  -0.172   5.264 -0.0679  0.0317  0.6551
  116PC     O12 5140   6.874  -0.145   5.379 -0.1264 -0.0347 -0.4019
  116PC     O11 5141   6.938  -0.280   5.214  0.1818  0.5309 -0.0864
  116PC      C1 5142   6.978  -0.384   5.300  1.0022 -0.1512 -0.6835
  116PC      HR 5143   7.066  -0.433   5.257  0.6242 -0.5181 -1.0456
  116PC      HS 5144   7.011  -0.354   5.400  0.2097  0.4263 -0.5820
  116PC      C2 5145   6.872  -0.495   5.324  0.3691 -0.3612 -0.0333
  116PC      HX 5146   6.795  -0.456   5.391 -1.3469 -2.1054 -0.8987
  116PC      C3 5147   6.938  -0.616   5.386 -0.3392  0.1786 -0.2153
  116PC      HA 5148   6.991  -0.677   5.312  1.0223  2.5279 -1.2835
  116PC      HB 5149   7.006  -0.578   5.463  1.2459  1.4152 -2.1265
  116PC     O31 5150   6.839  -0.702   5.446 -0.3253  0.0732 -0.0024
  116PC     P31 5151   6.751  -0.672   5.575 -0.3326  0.0826 -0.2229
  116PC     O32 5152   6.610  -0.619   5.520  0.5928  0.2045 -0.6028
  116PC     C31 5153   6.501  -0.704   5.480  0.2194 -0.1800 -0.0362
  116PC     H1A 5154   6.440  -0.648   5.409  1.0764 -0.0208 -0.6750
  116PC     H1B 5155   6.544  -0.794   5.434  0.2348  0.7998 -2.0736
  116PC     C32 5156   6.424  -0.739   5.606  0.0845 -0.7139 -0.8669
  116PC     H2A 5157   6.493  -0.760   5.687 -0.2333  3.6770  0.7940
  116PC     H2B 5158   6.380  -0.646   5.643 -1.6100 -2.6790  2.4133
  116PC     N31 5159   6.310  -0.840   5.595 -0.0005 -0.3997  0.4142
  116PC     C33 5160   6.227  -0.819   5.473  0.2551  0.3068 -0.1238
  116PC     H3A 5161   6.164  -0.732   5.492  0.5956 -0.0073  2.8905
  116PC     H3B 5162   6.285  -0.801   5.382 -2.2430  0.3058 -1.8310
  116PC     H3C 5163   6.153  -0.899   5.462 -0.6565  0.8656  1.5758
  116PC     C34 5164   6.363  -0.978   5.613  0.6128 -0.1015 -0.2474
  116PC     H4A 5165   6.396  -0.998   5.715  3.5999 -1.6903 -1.3948
  116PC     H4B 5166   6.282  -1.048   5.592  1.0797 -1.4587  2.1367
  116PC     H4C 5167   6.446  -0.998   5.545  0.6751 -0.8359  0.0333
  116PC     C35 5168   6.219  -0.821   5.711 -0.7490  0.1539  0.2868
  116PC     H5A 5169   6.283  -0.838   5.798  1.8513 -1.3444 -1.7656
  116PC     H5B 5170   6.146  -0.902   5.707 -0.5037 -0.2108  2.1592
  116PC     H5C 5171   6.186  -0.717   5.704  1.9420  1.2427  2.0590
  116PC     O33 5172   6.722  -0.796   5.647  0.2887 -0.0764 -0.0393
  116PC     O34 5173   6.819  -0.568   5.653 -0.0747 -0.1101  0.2119
  116PC     O21 5174   6.822  -0.546   5.201  0.3938 -0.2703 -0.0358
  116PC     C21 5175   6.700  -0.504   5.158 -0.0144  0.6010 -0.5694
  116PC     O22 5176   6.626  -0.417   5.207  0.7351 -0.0371  0.2645
  117OL     C12 5177   6.654  -0.596   5.048  1.0570 -0.7301 -0.5389
  117OL     H2R 5178   6.548  -0.576   5.029  0.9196  0.5157  1.2003
  117OL     H2S 5179   6.663  -0.697   5.088  1.9459 -0.7324 -0.7186
  117OL     C13 5180   6.718  -0.574   4.910  0.2582  0.1753  0.5278
  117OL     H3R 5181   6.685  -0.653   4.842  0.9350 -3.0268  3.5553
  117OL     H3S 5182   6.826  -0.593   4.908  0.0586 -1.0176  0.2450
  117OL     C14 5183   6.682  -0.433   4.860  0.6813  0.1563 -0.0085
  117OL     H4R 5184   6.732  -0.355   4.916  1.6246 -0.2831 -0.2149
  117OL     H4S 5185   6.574  -0.422   4.869  0.7036  0.1066  0.3379
  117OL     C15 5186   6.721  -0.416   4.711 -1.1755  0.2076 -0.5351
  117OL     H5R 5187   6.650  -0.471   4.649 -2.7285  0.4572  0.9409
  117OL     H5S 5188   6.823  -0.448   4.691 -0.0860  3.1053 -0.0472
  117OL     C16 5189   6.707  -0.272   4.653 -0.2451 -0.6229  0.8404
  117OL     H6R 5190   6.603  -0.240   4.663  0.1968  0.8876  0.8281
  117OL     H6S 5191   6.741  -0.272   4.550  3.5752  0.5668  1.9142
  117OL     C17 5192   6.798  -0.170   4.731  0.0952 -0.2412 -1.0350
  117OL     H7R 5193   6.758  -0.152   4.832  0.7117  0.0944 -0.8457
  117OL     H7S 5194   6.778  -0.075   4.680  0.7927  0.0388 -0.7899
  117OL     C18 5195   6.949  -0.194   4.746  0.1202 -0.3752 -0.0088
  117OL     H8R 5196   6.985  -0.228   4.649  0.5917 -2.4009  0.8239
  117OL     H8S 5197   6.960  -0.279   4.814 -0.4599 -0.1311  0.4017
  117OL     C19 5198   7.033  -0.071   4.790  0.4893 -1.1279 -0.1636
  117OL     H9R 5199   7.001  -0.031   4.886 -1.1783  0.0543 -1.1605
  117OL    C110 5200   7.130  -0.017   4.715  0.8387  0.3322  0.2654
  117OL    H10R 5201   7.186   0.068   4.754  0.4565  1.1531 -0.9182
  117OL    C111 5202   7.181  -0.071   4.583 -1.0199  0.1766  0.0881
  117OL    H11R 5203   7.147  -0.174   4.568  0.4313  0.0252 -3.1634
  117OL    H11S 5204   7.289  -0.059   4.573 -0.4585 -2.9076  1.2606
  117OL    C112 5205   7.109   0.004   4.474 -0.5014  0.4292 -0.1142
  117OL    H12R 5206   7.129   0.111   4.481 -3.5707  1.1303 -0.5649
  117OL    H12S 5207   7.004   0.006   4.504 -1.0947  0.0699 -2.0020
  117OL    C113 5208   7.141  -0.054   4.331  0.5123 -0.1276 -0.2549
  117OL    H13R 5209   7.135  -0.163   4.337 -1.1321 -0.0294  0.4168
  117OL    H13S 5210   7.239  -0.016   4.302  1.7125 -1.2923  2.0513
  117OL    C114 5211   7.038  -0.010   4.233  0.3697  0.7547 -0.3841
  117OL    H14R 5212   7.031   0.099   4.230 -1.4984  0.7168  0.8020
  117OL    H14S 5213   6.937  -0.044   4.257  1.5418 -1.1158  2.2755
  117OL    C115 5214   7.061  -0.071   4.098 -1.0221  0.6521  0.6133
  117OL    H15R 5215   7.058  -0.177   4.122 -1.0174  1.1405  2.9688
  117OL    H15S 5216   7.164  -0.055   4.062  0.4697 -3.2880  2.5703
  117OL    C116 5217   6.953  -0.033   4.001 -0.3725  0.3880  0.1959
  117OL    H16R 5218   6.952   0.074   3.981  1.4883 -0.0207 -2.5860
  117OL    H16S 5219   6.861  -0.063   4.052 -0.3071  1.4878  0.9837
  117OL    C117 5220   6.965  -0.091   3.858 -1.0183  0.2973 -0.0952
  117OL    H17R 5221   7.065  -0.068   3.821 -1.1195 -0.1527 -0.6535
  117OL    H17S 5222   6.914  -0.022   3.791  0.7795  1.9644  0.1464
  117OL    C118 5223   6.909  -0.237   3.847 -0.4383 -0.5167 -0.4586
  117OL    H18R 5224   6.805  -0.235   3.880 -0.0140 -2.3443  1.1981
  117OL    H18S 5225   6.972  -0.301   3.909  0.5283  0.3130 -0.5692
  117OL    H18T 5226   6.924  -0.277   3.746  2.5243 -2.4055  0.6048
  118PA    C116 5227   4.963   1.476   3.845  0.2425  0.0690  0.9812
  118PA    H16R 5228   4.915   1.380   3.824  4.5172 -1.7778 -1.9522
  118PA    H16S 5229   5.069   1.459   3.827 -0.1970 -1.1527 -0.7738
  118PA    H16T 5230   4.929   1.547   3.770  2.3887  2.0745  1.7989
  118PA    C115 5231   4.926   1.535   3.987 -0.2285 -0.6606 -0.5516
  118PA    H15R 5232   4.981   1.625   4.016 -0.1228 -1.3104  1.4272
  118PA    H15S 5233   4.820   1.560   3.983 -0.2550 -0.7929 -0.6563
  118PA    C114 5234   4.945   1.426   4.095 -0.2881 -0.4478  0.1920
  118PA    H14R 5235   4.880   1.463   4.175 -0.9550  0.5739 -0.7803
  118PA    H14S 5236   4.908   1.329   4.062 -1.8610 -0.2277  1.1948
  118PA    C113 5237   5.096   1.411   4.131  0.3055 -0.0866  0.2230
  118PA    H13R 5238   5.105   1.330   4.204  2.8315  0.5682  0.7419
  118PA    H13S 5239   5.160   1.383   4.046  0.9308  1.5142  0.1318
  118PA    C112 5240   5.154   1.536   4.191  0.0535  0.1035 -0.7159
  118PA    H12R 5241   5.249   1.512   4.239 -0.7281  1.3100  1.6277
  118PA    H12S 5242   5.168   1.616   4.118 -0.9057  1.1172  0.1724
  118PA    C111 5243   5.073   1.575   4.317 -0.4845  0.0805 -0.2798
  118PA    H11R 5244   5.133   1.653   4.363 -1.8362 -0.8726  3.5258
  118PA    H11S 5245   4.981   1.626   4.286 -0.1109  1.3068  0.5661
  118PA    C110 5246   5.050   1.474   4.427 -0.5039 -0.1966 -0.0703
  118PA    H10R 5247   4.984   1.404   4.376 -0.3570  1.1531 -2.2627
  118PA    H10S 5248   5.147   1.433   4.459  0.7961  1.1689 -2.0132
  118PA     C19 5249   4.989   1.525   4.561 -0.4079 -0.3786  0.0895
  118PA     H9R 5250   5.062   1.596   4.601 -2.3960  0.9598  1.5325
  118PA     H9S 5251   4.893   1.575   4.547 -0.1085 -0.0076 -0.6891
  118PA     C18 5252   4.968   1.401   4.650 -0.7110 -0.1014  0.3566
  118PA     H8R 5253   4.905   1.337   4.588 -1.3844 -0.7992  1.7033
  118PA     H8S 5254   5.064   1.353   4.669  0.4088  1.6375 -0.7013
  118PA     C17 5255   4.903   1.422   4.789 -0.2728 -0.3352  0.4617
  118PA     H7R 5256   4.971   1.492   4.838  2.1908 -1.2808 -1.4266
  118PA     H7S 5257   4.805   1.466   4.771  0.3627  1.0255  0.1854
  118PA     C16 5258   4.901   1.299   4.881  0.1657 -0.4165 -0.1366
  118PA     H6R 5259   4.826   1.232   4.840  0.3484  0.7644 -2.5370
  118PA     H6S 5260   5.000   1.253   4.875  0.3531 -0.2079  0.9826
  118PA     C15 5261   4.895   1.314   5.035  0.0867 -0.1192 -0.5190
  118PA     H5R 5262   4.915   1.216   5.078  0.6764 -0.3754 -1.3603
  118PA     H5S 5263   4.981   1.376   5.061  0.6936 -1.3034  0.4101
  118PA     C14 5264   4.760   1.381   5.067 -0.4263  0.5102  0.5815
  118PA     H4R 5265   4.752   1.474   5.009  0.3554 -0.0027 -0.3687
  118PA     H4S 5266   4.687   1.313   5.023  0.3541 -0.6232  1.0099
  118PA     C13 5267   4.720   1.410   5.211  0.2025  0.2437  0.5767
  118PA     H3R 5268   4.782   1.490   5.251  0.4842  0.2389  0.1541
  118PA     H3S 5269   4.618   1.447   5.197  0.6404  0.7251 -1.7659
  118PA     C12 5270   4.734   1.294   5.313  0.1788  0.2526  0.2147
  118PA     H2R 5271   4.675   1.210   5.277  0.1114  0.5317 -0.3422
  118PA     H2S 5272   4.837   1.258   5.315  0.0813 -0.0943 -0.7101
  119PC     C11 5273   4.671   1.330   5.445 -0.1291 -0.5075 -0.4310
  119PC     O12 5274   4.559   1.296   5.479 -0.6078  0.0089 -0.0369
  119PC     O11 5275   4.758   1.413   5.517  0.0718 -0.5273 -0.2614
  119PC      C1 5276   4.707   1.474   5.641 -0.4652  0.3679 -0.9362
  119PC      HR 5277   4.618   1.535   5.622  0.3402  2.1830  0.7810
  119PC      HS 5278   4.680   1.393   5.710 -0.5084  1.8572  0.8677
  119PC      C2 5279   4.806   1.569   5.710 -0.4146  0.0105 -0.2061
  119PC      HX 5280   4.902   1.518   5.726 -0.6084 -0.1423  0.5022
  119PC      C3 5281   4.755   1.608   5.854  0.3053 -0.9225  0.2741
  119PC      HA 5282   4.820   1.687   5.893  1.2110 -1.9019  0.8004
  119PC      HB 5283   4.653   1.645   5.839  1.0008  1.6102  1.2857
  119PC     O31 5284   4.740   1.493   5.948 -0.4457 -0.2752 -0.3354
  119PC     P31 5285   4.848   1.451   6.053  0.0234 -0.5220 -0.3147
  119PC     O32 5286   4.970   1.396   5.961 -0.0626 -0.3210  0.3935
  119PC     C31 5287   4.969   1.260   5.905  0.3450  0.4400 -0.2006
  119PC     H1A 5288   4.866   1.234   5.881  0.6761  0.6900 -2.0054
  119PC     H1B 5289   5.012   1.267   5.805 -0.5874  1.0140 -0.5752
  119PC     C32 5290   5.031   1.147   5.995 -0.1304  0.3045 -0.7417
  119PC     H2A 5291   5.132   1.176   6.025  0.3885 -1.1975 -0.9257
  119PC     H2B 5292   4.974   1.127   6.085  0.9223  0.9268  0.0836
  119PC     N31 5293   5.051   1.010   5.934  0.9915  0.1693  0.7782
  119PC     C33 5294   4.916   0.936   5.921 -0.3112 -0.8407  0.0515
  119PC     H3A 5295   4.859   0.949   6.013  1.3462  1.5019  0.8321
  119PC     H3B 5296   4.850   0.973   5.843 -2.8498 -1.0826  1.9645
  119PC     H3C 5297   4.935   0.828   5.912  1.1787 -0.9327  2.9852
  119PC     C34 5298   5.124   1.004   5.807  0.0815  0.0486 -0.1389
  119PC     H4A 5299   5.224   1.044   5.824  1.2547 -1.6830 -2.4318
  119PC     H4B 5300   5.126   0.903   5.767  0.7634  0.2124 -0.5467
  119PC     H4C 5301   5.072   1.070   5.737  2.9025  0.8078 -1.7067
  119PC     C35 5302   5.123   0.941   6.043 -0.1872  0.7745  0.2669
  119PC     H5A 5303   5.072   0.948   6.138 -0.6224 -0.5093  0.1419
  119PC     H5B 5304   5.219   0.993   6.049  0.3342 -0.1963  0.5788
  119PC     H5C 5305   5.152   0.838   6.022  1.4838  0.9851  1.3070
  119PC     O33 5306   4.904   1.570   6.124 -0.2428  0.3407  0.4250
  119PC     O34 5307   4.805   1.334   6.129  0.0071  0.3312 -0.2182
  119PC     O21 5308   4.809   1.686   5.624 -0.2324 -0.1607  0.0527
  119PC     C21 5309   4.926   1.750   5.591 -0.2772  0.2514  0.0848
  119PC     O22 5310   5.036   1.708   5.606  0.1058 -0.0930 -0.5758
  120OL     C12 5311   4.894   1.874   5.509  0.6180 -0.2947  0.0639
  120OL     H2R 5312   4.936   1.965   5.553 -1.6873  1.2581 -0.7708
  120OL     H2S 5313   4.786   1.889   5.514  1.0287  3.0690  2.8939
  120OL     C13 5314   4.941   1.859   5.366 -0.7564  0.0257 -0.2249
  120OL     H3R 5315   5.049   1.878   5.366 -1.1237  2.4280  0.1010
  120OL     H3S 5316   4.900   1.943   5.309  2.0033  0.8113 -1.2177
  120OL     C14 5317   4.906   1.738   5.281 -0.4595 -0.3390 -0.4519
  120OL     H4R 5318   4.798   1.739   5.298 -0.4512  4.3857  0.4213
  120OL     H4S 5319   4.950   1.651   5.330 -0.7256  0.2720  0.9200
  120OL     C15 5320   4.937   1.753   5.130 -0.8075 -0.0378 -0.4495
  120OL     H5R 5321   4.917   1.856   5.097  0.8409  1.3891  2.5715
  120OL     H5S 5322   4.880   1.680   5.072  2.4324 -1.6981 -1.7505
  120OL     C16 5323   5.089   1.735   5.106 -0.4288  0.0300  0.1340
  120OL     H6R 5324   5.096   1.626   5.117 -1.6483 -0.2247 -1.2177
  120OL     H6S 5325   5.151   1.780   5.183 -2.1275 -0.5572  1.9573
  120OL     C17 5326   5.127   1.782   4.964  0.1828  0.0682  0.4718
  120OL     H7R 5327   5.107   1.890   4.961  1.7681  0.3718 -2.3308
  120OL     H7S 5328   5.070   1.731   4.887  1.6016 -1.7356  0.5564
  120OL     C18 5329   5.270   1.768   4.928 -0.1490  1.0898  0.0721
  120OL     H8R 5330   5.290   1.664   4.955 -2.3585  0.9440  1.4789
  120OL     H8S 5331   5.337   1.824   4.993  1.2239 -2.0171  1.5677
  120OL     C19 5332   5.276   1.786   4.779  0.2621  0.1412  0.1182
  120OL     H9R 5333   5.251   1.885   4.742 -1.7837 -0.4575 -0.2771
  120OL    C110 5334   5.304   1.690   4.692  0.1590  1.1779  0.5195
  120OL    H10R 5335   5.296   1.709   4.585  1.3148 -2.0056 -0.2328
  120OL    C111 5336   5.350   1.547   4.714  0.9748  0.1566  0.1548
  120OL    H11R 5337   5.272   1.482   4.673  2.4007 -1.2552 -0.4279
  120OL    H11S 5338   5.357   1.514   4.818 -2.4560 -0.5814  0.2832
  120OL    C112 5339   5.482   1.532   4.640 -0.1256  0.4779  0.3461
  120OL    H12R 5340   5.467   1.556   4.535  0.5513 -0.4172  0.0303
  120OL    H12S 5341   5.499   1.424   4.632 -0.2900 -0.0613  4.6065
  120OL    C113 5342   5.606   1.597   4.702  0.2221  0.0096  0.7633
  120OL    H13R 5343   5.605   1.699   4.663 -1.9185 -0.2479  0.0082
  120OL    H13S 5344   5.691   1.543   4.661 -0.8253 -1.4757  0.4557
  120OL    C114 5345   5.615   1.609   4.858 -0.9737  0.8170 -0.2625
  120OL    H14R 5346   5.591   1.513   4.904  2.8084 -1.1081 -1.8688
  120OL    H14S 5347   5.551   1.694   4.880 -2.7149  0.0365 -1.9590
  120OL    C115 5348   5.757   1.658   4.898  0.6584  0.3930 -0.5915
  120OL    H15R 5349   5.790   1.740   4.833 -0.8980  1.5210 -0.0182
  120OL    H15S 5350   5.824   1.575   4.874 -1.5200 -1.7984  0.4916
  120OL    C116 5351   5.776   1.690   5.046  0.5974  0.1437 -0.3292
  120OL    H16R 5352   5.717   1.778   5.073  1.9796  1.5701 -1.7611
  120OL    H16S 5353   5.880   1.712   5.072  1.0427 -0.6587 -1.3762
  120OL    C117 5354   5.737   1.580   5.149  0.1533  0.3207 -0.4128
  120OL    H17R 5355   5.629   1.589   5.137  0.2624  1.1919 -0.8433
  120OL    H17S 5356   5.760   1.601   5.253  1.6453  1.4619 -0.9415
  120OL    C118 5357   5.798   1.438   5.133  0.8512 -1.0621 -0.1081
  120OL    H18R 5358   5.890   1.432   5.190  1.8443 -1.8241 -1.7303
  120OL    H18S 5359   5.808   1.398   5.032  0.2888  1.7293 -1.3511
  120OL    H18T 5360   5.727   1.363   5.170 -1.8123  1.0640 -0.6328
  121PA    C116 5361   4.274   0.500   4.686 -0.3387 -0.7922  0.4112
  121PA    H16R 5362   4.237   0.598   4.717  0.3565 -0.2094 -0.5665
  121PA    H16S 5363   4.226   0.423   4.748 -0.0659 -0.7654  0.6571
  121PA    H16T 5364   4.254   0.480   4.581  2.7110 -1.5271 -0.1042
  121PA    C115 5365   4.430   0.505   4.691  1.0185 -0.2721 -0.0605
  121PA    H15R 5366   4.468   0.405   4.669 -2.2663 -1.7477  0.4895
  121PA    H15S 5367   4.463   0.572   4.611  0.8291  0.3155  0.3478
  121PA    C114 5368   4.471   0.563   4.828  0.6116  0.0616 -1.3720
  121PA    H14R 5369   4.572   0.603   4.815  0.5414 -0.2133 -2.8698
  121PA    H14S 5370   4.407   0.646   4.856  1.6252  0.6041 -0.5787
  121PA    C113 5371   4.454   0.464   4.943  0.2467  0.2529 -0.5152
  121PA    H13R 5372   4.351   0.430   4.958  0.3718 -0.8189 -1.9257
  121PA    H13S 5373   4.515   0.375   4.929  0.7276  0.1495  1.8732
  121PA    C112 5374   4.501   0.530   5.066 -0.0882  0.2179 -0.6817
  121PA    H12R 5375   4.604   0.565   5.056 -0.1332  0.4832 -0.2188
  121PA    H12S 5376   4.440   0.619   5.084  0.1128  0.0194  1.1408
  121PA    C111 5377   4.494   0.431   5.187 -0.0908 -0.2213 -0.6467
  121PA    H11R 5378   4.569   0.353   5.170  1.7956  0.8522  2.0244
  121PA    H11S 5379   4.537   0.472   5.278  1.6474  0.9255 -1.9034
  121PA    C110 5380   4.357   0.372   5.216  0.3209  0.2335  0.1559
  121PA    H10R 5381   4.276   0.444   5.207  1.2540  1.2220 -0.5291
  121PA    H10S 5382   4.354   0.292   5.141  3.5389 -0.6339  0.7968
  121PA     C19 5383   4.352   0.294   5.350  0.3239 -0.0138 -0.0230
  121PA     H9R 5384   4.416   0.207   5.330  3.7077  2.4741 -0.8779
  121PA     H9S 5385   4.401   0.360   5.422 -1.4149  0.6172  0.6342
  121PA     C18 5386   4.213   0.265   5.414  1.0598 -0.3275  0.2485
  121PA     H8R 5387   4.217   0.219   5.512 -4.9853 -1.3775  0.3949
  121PA     H8S 5388   4.158   0.356   5.440 -0.2687 -0.8529 -0.6003
  121PA     C17 5389   4.120   0.187   5.327  0.4997 -0.5456 -0.5952
  121PA     H7R 5390   4.020   0.183   5.369 -1.8546  1.0554 -5.3158
  121PA     H7S 5391   4.100   0.251   5.241  0.7342  0.7523  0.2870
  121PA     C16 5392   4.152   0.045   5.293  0.0598 -0.0142  0.4165
  121PA     H6R 5393   4.062   0.006   5.244  0.7980 -0.1212 -0.9015
  121PA     H6S 5394   4.238   0.051   5.226 -0.6243  0.9409 -0.4187
  121PA     C15 5395   4.172  -0.037   5.421 -0.3038  0.1633  1.0292
  121PA     H5R 5396   4.215  -0.135   5.401  1.8053  1.0733  0.8042
  121PA     H5S 5397   4.251   0.013   5.477  1.7534 -1.1728 -0.5438
  121PA     C14 5398   4.042  -0.049   5.503 -0.3999  0.2018 -0.8171
  121PA     H4R 5399   4.018   0.052   5.536  0.3956 -0.1313  0.9084
  121PA     H4S 5400   3.952  -0.085   5.451  0.9338 -2.3723 -1.5396
  121PA     C13 5401   4.061  -0.129   5.634 -0.5844  0.0674  0.2564
  121PA     H3R 5402   4.156  -0.087   5.669 -1.2422  2.6571 -0.8509
  121PA     H3S 5403   3.984  -0.095   5.703  0.1882  2.0034  0.2116
  121PA     C12 5404   4.094  -0.279   5.632 -0.2686 -0.0026 -0.3885
  121PA     H2R 5405   4.008  -0.337   5.597 -0.2384  0.5075 -1.3226
  121PA     H2S 5406   4.166  -0.299   5.553  1.2705  2.5240  0.2458
  122PC     C11 5407   4.150  -0.332   5.763  0.1154 -0.2484 -0.0014
  122PC     O12 5408   4.209  -0.259   5.841  0.0689 -0.7026 -0.1758
  122PC     O11 5409   4.142  -0.469   5.766  0.6375 -0.4089  0.0249
  122PC      C1 5410   4.203  -0.534   5.886  0.1287 -0.0623 -0.1749
  122PC      HR 5411   4.227  -0.638   5.863 -1.0466 -0.1368 -1.1734
  122PC      HS 5412   4.291  -0.479   5.921 -0.7486 -0.1483  2.3595
  122PC      C2 5413   4.098  -0.549   5.997 -0.4607  0.5303 -0.4081
  122PC      HX 5414   4.073  -0.445   6.017  0.5844  0.6618  0.2885
  122PC      C3 5415   4.154  -0.601   6.132  0.1380 -1.4171 -0.5323
  122PC      HA 5416   4.073  -0.609   6.205  1.2751  0.0658  0.9581
  122PC      HB 5417   4.197  -0.701   6.120  0.7578 -1.2187 -0.0255
  122PC     O31 5418   4.256  -0.511   6.184  0.2145 -0.3917  0.5755
  122PC     P31 5419   4.404  -0.568   6.205  0.0167 -0.0080  0.2503
  122PC     O32 5420   4.388  -0.607   6.363 -0.2356  0.0306  0.2167
  122PC     C31 5421   4.466  -0.535   6.455  0.2878  0.4917 -0.1259
  122PC     H1A 5422   4.573  -0.532   6.433  0.0406 -0.8121 -1.6835
  122PC     H1B 5423   4.414  -0.439   6.454 -0.5409  0.0563 -0.3642
  122PC     C32 5424   4.437  -0.588   6.599  0.2568  0.0558 -0.2728
  122PC     H2A 5425   4.334  -0.579   6.634 -0.1418 -1.7305 -0.8701
  122PC     H2B 5426   4.453  -0.696   6.593 -0.2257  0.0509 -1.8663
  122PC     N31 5427   4.522  -0.540   6.710  0.0734  0.4484 -0.0224
  122PC     C33 5428   4.665  -0.587   6.696  0.4342 -0.1144  0.1206
  122PC     H3A 5429   4.666  -0.682   6.643 -0.2424 -0.1672  0.1936
  122PC     H3B 5430   4.708  -0.506   6.637 -0.6285  1.4427  1.3628
  122PC     H3C 5431   4.708  -0.582   6.796  0.6397  1.2435 -0.0140
  122PC     C34 5432   4.515  -0.394   6.716 -0.1780 -0.0187 -0.0516
  122PC     H4A 5433   4.411  -0.369   6.740 -0.2835  1.3824 -1.7332
  122PC     H4B 5434   4.571  -0.353   6.800  0.2816 -0.6181 -0.0621
  122PC     H4C 5435   4.546  -0.344   6.623  0.3604  1.0871  0.6918
  122PC     C35 5436   4.465  -0.591   6.829 -0.1753  0.4359  0.0299
  122PC     H5A 5437   4.360  -0.564   6.820  0.2623  1.5500 -2.3752
  122PC     H5B 5438   4.517  -0.551   6.916 -0.0487  0.6979 -0.1664
  122PC     H5C 5439   4.481  -0.699   6.831 -1.2440  0.2552 -0.2516
  122PC     O33 5440   4.427  -0.692   6.140  0.4797  0.1472 -0.2049
  122PC     O34 5441   4.492  -0.453   6.187 -0.5777  0.7024  0.3570
  122PC     O21 5442   3.994  -0.644   5.967  0.1591 -0.0429 -0.3200
  122PC     C21 5443   3.879  -0.608   5.913 -0.0743  0.1857 -0.4348
  122PC     O22 5444   3.846  -0.494   5.897  0.3059  0.0241 -0.2513
  123OL     C12 5445   3.792  -0.725   5.893  0.2504  0.7362 -0.0348
  123OL     H2R 5446   3.719  -0.732   5.974 -1.7610 -0.4515 -1.8408
  123OL     H2S 5447   3.849  -0.818   5.902 -0.0312  0.6662  1.1767
  123OL     C13 5448   3.740  -0.724   5.754  0.0161  0.0139 -0.0694
  123OL     H3R 5449   3.670  -0.643   5.733 -2.9283 -2.8239 -2.3354
  123OL     H3S 5450   3.684  -0.817   5.736  1.2406 -0.5155 -1.3184
  123OL     C14 5451   3.848  -0.738   5.646  0.9503  0.2042  0.2892
  123OL     H4R 5452   3.891  -0.839   5.648  1.4058  0.3442 -1.1827
  123OL     H4S 5453   3.932  -0.670   5.660  1.5129 -0.3447 -0.3553
  123OL     C15 5454   3.778  -0.698   5.513 -0.3498 -0.3082 -0.0008
  123OL     H5R 5455   3.736  -0.598   5.523 -2.7188 -1.2768  0.5746
  123OL     H5S 5456   3.694  -0.766   5.497 -2.3386  1.6076  1.7210
  123OL     C16 5457   3.870  -0.727   5.395  0.1737  0.2634  0.8353
  123OL     H6R 5458   3.922  -0.823   5.399 -0.0982  0.0953  0.3905
  123OL     H6S 5459   3.950  -0.653   5.392  1.0784 -0.6384  1.6295
  123OL     C17 5460   3.791  -0.710   5.261 -0.8262 -0.2484  0.3848
  123OL     H7R 5461   3.750  -0.609   5.258 -1.2592 -0.3751  1.5417
  123OL     H7S 5462   3.700  -0.770   5.254 -0.3038 -1.1694  1.2043
  123OL     C18 5463   3.882  -0.721   5.143  0.1379 -0.2567 -0.2272
  123OL     H8R 5464   3.925  -0.822   5.149  1.0586  0.1706  0.5727
  123OL     H8S 5465   3.969  -0.659   5.167  1.2906 -2.2717  1.0301
  123OL     C19 5466   3.817  -0.677   5.020 -0.0194  0.4070  0.2024
  123OL     H9R 5467   3.805  -0.569   5.020 -1.9519  0.2599  1.8835
  123OL    C110 5468   3.785  -0.751   4.913 -0.6136 -0.0201  0.3801
  123OL    H10R 5469   3.751  -0.702   4.822  0.5517  0.7717  0.3436
  123OL    C111 5470   3.803  -0.901   4.899 -0.6084 -0.4801 -0.3019
  123OL    H11R 5471   3.706  -0.945   4.922  0.1088 -1.5896  0.7435
  123OL    H11S 5472   3.874  -0.947   4.967 -3.2386 -1.0098  2.2627
  123OL    C112 5473   3.849  -0.928   4.759 -0.0726 -0.5192  0.1683
  123OL    H12R 5474   3.938  -0.868   4.742  0.1684 -1.3161 -1.5576
  123OL    H12S 5475   3.767  -0.909   4.690  0.0575 -0.0428  0.1403
  123OL    C113 5476   3.891  -1.076   4.746  0.8474 -0.1284  0.4286
  123OL    H13R 5477   3.802  -1.134   4.770 -0.1327  0.4214 -1.6795
  123OL    H13S 5478   3.975  -1.104   4.810  0.3748  1.5038  1.8605
  123OL    C114 5479   3.939  -1.125   4.611  0.5670 -0.5455  0.0971
  123OL    H14R 5480   3.955  -1.233   4.609 -1.8385 -0.9619 -0.8207
  123OL    H14S 5481   4.034  -1.078   4.583 -0.3333  0.5187 -1.3637
  123OL    C115 5482   3.832  -1.095   4.501  0.2270  0.1409 -0.4462
  123OL    H15R 5483   3.812  -0.989   4.484  2.1365  0.6865  0.3191
  123OL    H15S 5484   3.736  -1.137   4.531  0.6889 -1.3639 -0.9749
  123OL    C116 5485   3.872  -1.168   4.371  1.0334  0.1641 -0.4764
  123OL    H16R 5486   3.885  -1.275   4.386  0.6078  0.0550 -0.8759
  123OL    H16S 5487   3.969  -1.134   4.334  0.8369 -0.2150 -1.3656
  123OL    C117 5488   3.771  -1.138   4.266 -0.1264  0.1803  0.7504
  123OL    H17R 5489   3.785  -1.035   4.232  1.0781 -0.1368  0.2227
  123OL    H17S 5490   3.667  -1.142   4.298 -0.7300  2.6157 -0.5907
  123OL    C118 5491   3.804  -1.228   4.138 -0.2927 -0.8337 -0.8474
  123OL    H18R 5492   3.906  -1.206   4.107  0.2018 -0.7491  0.7509
  123OL    H18S 5493   3.731  -1.203   4.061  1.0560  2.7600 -1.1317
  123OL    H18T 5494   3.804  -1.334   4.164  3.6902 -0.2668  2.6190
  124PA    C116 5495   0.768   4.535   4.154 -0.1833 -0.1092  0.3172
  124PA    H16R 5496   0.667   4.577   4.150 -0.5140 -0.9265 -3.3171
  124PA    H16S 5497   0.793   4.486   4.060 -0.0315  1.2835 -0.4052
  124PA    H16T 5498   0.838   4.617   4.173  1.5071 -0.8565 -2.2193
  124PA    C115 5499   0.785   4.443   4.267 -0.2400  0.4452 -0.7204
  124PA    H15R 5500   0.766   4.495   4.362 -1.2776  0.2665 -0.8169
  124PA    H15S 5501   0.711   4.364   4.268 -1.3860  1.4757  0.6389
  124PA    C114 5502   0.930   4.383   4.267  0.1613 -0.5699  0.7388
  124PA    H14R 5503   0.940   4.324   4.175 -3.7760 -0.9695  0.3987
  124PA    H14S 5504   1.007   4.460   4.265  0.0657 -0.4549 -1.5320
  124PA    C113 5505   0.956   4.286   4.384 -0.3963  0.2759  0.3741
  124PA    H13R 5506   0.882   4.207   4.369  1.4830 -1.0535 -2.9196
  124PA    H13S 5507   1.053   4.237   4.375  1.0438  2.9343  0.3345
  124PA    C112 5508   0.941   4.342   4.524  0.1468 -0.4863 -0.1926
  124PA    H12R 5509   0.836   4.368   4.538  0.9224  2.1244  1.5482
  124PA    H12S 5510   0.969   4.271   4.602  0.8888 -0.6385 -0.5876
  124PA    C111 5511   1.033   4.463   4.545 -0.0851 -0.1027 -0.8083
  124PA    H11R 5512   1.137   4.430   4.541  0.1799  0.5536  0.2033
  124PA    H11S 5513   1.026   4.542   4.471 -1.3716  1.4853  0.8958
  124PA    C110 5514   1.000   4.524   4.685  0.0127 -0.3148 -0.1114
  124PA    H10R 5515   1.010   4.447   4.762 -0.6191  0.5217  0.8282
  124PA    H10S 5516   1.089   4.582   4.710  0.5278 -1.3136  0.4427
  124PA     C19 5517   0.869   4.609   4.690  0.1343  0.0735  0.5673
  124PA     H9R 5518   0.851   4.664   4.598  0.7492 -2.0458 -0.8910
  124PA     H9S 5519   0.794   4.529   4.685  0.5404 -0.3765  1.4177
  124PA     C18 5520   0.849   4.691   4.811 -0.0420 -0.2413 -0.3939
  124PA     H8R 5521   0.915   4.777   4.798 -0.3364  0.0091 -0.2323
  124PA     H8S 5522   0.742   4.712   4.815  0.3335  1.8464 -0.3861
  124PA     C17 5523   0.897   4.619   4.942  0.8153  0.2849  0.4212
  124PA     H7R 5524   0.851   4.520   4.952 -1.2037  1.2643  1.1584
  124PA     H7S 5525   1.001   4.584   4.936  0.3072 -1.0627 -2.0956
  124PA     C16 5526   0.874   4.702   5.073 -0.1015 -0.1061  0.1564
  124PA     H6R 5527   0.902   4.636   5.156 -0.9659  0.4029  0.8736
  124PA     H6S 5528   0.937   4.791   5.068  0.1060 -0.3146 -1.3228
  124PA     C15 5529   0.726   4.737   5.092  0.0895  0.3195 -0.2153
  124PA     H5R 5530   0.707   4.824   5.029  1.4009 -0.4059 -1.6624
  124PA     H5S 5531   0.665   4.654   5.056  1.2090 -0.5036 -0.2501
  124PA     C14 5532   0.681   4.760   5.239 -0.4777 -0.0171  0.2133
  124PA     H4R 5533   0.720   4.680   5.302  0.5314  1.6465  1.7990
  124PA     H4S 5534   0.724   4.852   5.280 -3.2820  0.1483  3.1520
  124PA     C13 5535   0.527   4.777   5.238 -0.3322 -0.0447  0.3144
  124PA     H3R 5536   0.505   4.853   5.162 -0.3970 -2.9905 -2.8439
  124PA     H3S 5537   0.469   4.697   5.192  0.2204  0.3017 -1.0298
  124PA     C12 5538   0.461   4.820   5.375 -0.9095  0.2200 -0.0812
  124PA     H2R 5539   0.506   4.899   5.435 -1.5799 -0.7895  1.8520
  124PA     H2S 5540   0.359   4.854   5.356 -0.8158  0.2863 -0.4765
  125PC     C11 5541   0.444   4.701   5.462 -1.2619  0.1562  0.9378
  125PC     O12 5542   0.541   4.655   5.520 -0.2478  0.6651 -0.1122
  125PC     O11 5543   0.322   4.649   5.458  0.1356 -0.9642  1.1474
  125PC      C1 5544   0.286   4.573   5.576 -0.2936  0.5315  0.6821
  125PC      HR 5545   0.347   4.483   5.564  0.3666  1.1090 -0.4239
  125PC      HS 5546   0.309   4.634   5.664 -0.6649  0.9276  0.5031
  125PC      C2 5547   0.133   4.559   5.580 -0.4506  0.0810 -0.3183
  125PC      HX 5548   0.107   4.655   5.625  5.2200  2.3510 -1.0153
  125PC      C3 5549   0.097   4.441   5.678 -0.4387 -0.2189  0.9309
  125PC      HA 5550  -0.011   4.437   5.693 -0.4666  3.3011  2.8045
  125PC      HB 5551   0.156   4.362   5.632  2.1242  0.7071  2.4169
  125PC     O31 5552   0.149   4.456   5.812 -0.1002 -0.0736 -0.3436
  125PC     P31 5553   0.084   4.555   5.922 -0.2419  0.0071  0.0034
  125PC     O32 5554   0.009   4.447   6.004  0.3017 -0.3991  0.3217
  125PC     C31 5555   0.071   4.354   6.099  0.2755 -0.5669  0.1695
  125PC     H1A 5556   0.172   4.378   6.133  0.7685 -0.7580 -1.0877
  125PC     H1B 5557   0.011   4.365   6.189  0.6579 -0.5985  0.4330
  125PC     C32 5558   0.071   4.220   6.041 -0.4580  0.2676  0.1191
  125PC     H2A 5559  -0.026   4.192   5.999 -0.8530 -1.8352  2.2339
  125PC     H2B 5560   0.142   4.217   5.958 -0.9393  2.7935 -0.4470
  125PC     N31 5561   0.117   4.104   6.128  0.1020  0.0475  0.7518
  125PC     C33 5562   0.177   4.003   6.029  0.1855 -0.2289  0.0282
  125PC     H3A 5563   0.202   3.919   6.094  4.6215  1.6585  1.1217
  125PC     H3B 5564   0.100   3.985   5.953  0.9034 -0.2295 -0.7168
  125PC     H3C 5565   0.273   4.037   5.990  0.0319  1.9219  1.3833
  125PC     C34 5566   0.216   4.142   6.227 -0.4916 -0.2869  0.0137
  125PC     H4A 5567   0.251   4.046   6.264 -0.0098 -0.4616 -0.8606
  125PC     H4B 5568   0.297   4.194   6.176  0.7243 -0.6703  1.4962
  125PC     H4C 5569   0.167   4.211   6.296 -2.0388  1.0651 -2.2712
  125PC     C35 5570   0.006   4.034   6.193  0.1805  0.0099 -0.3568
  125PC     H5A 5571  -0.041   4.101   6.265  2.0062  0.0828  0.8190
  125PC     H5B 5572   0.053   3.942   6.226  0.6436 -0.2535 -1.6938
  125PC     H5C 5573  -0.071   4.002   6.122 -1.2646 -0.1004  1.1865
  125PC     O33 5574   0.202   4.596   5.994 -0.1131 -0.3039 -0.2236
  125PC     O34 5575  -0.018   4.644   5.867  0.3663  0.1404  0.3114
  125PC     O21 5576   0.071   4.538   5.452  0.1618 -0.0563  0.2142
  125PC     C21 5577  -0.047   4.597   5.423 -0.0186 -0.0301 -0.2003
  125PC     O22 5578  -0.109   4.671   5.499  0.0058  0.6324 -0.0705
  126OL     C12 5579  -0.100   4.564   5.285  0.3557 -0.0489 -0.2465
  126OL     H2R 5580  -0.209   4.560   5.285  0.2642  1.5677 -0.9701
  126OL     H2S 5581  -0.055   4.474   5.245 -0.6348 -0.6015 -0.1364
  126OL     C13 5582  -0.070   4.667   5.175  0.0594  0.2627 -0.1072
  126OL     H3R 5583  -0.121   4.758   5.209  0.3776  0.3679  0.0978
  126OL     H3S 5584  -0.122   4.635   5.084  0.5975  0.4239 -0.4810
  126OL     C14 5585   0.083   4.696   5.154 -0.2758  0.6022 -0.2619
  126OL     H4R 5586   0.132   4.599   5.140  2.1267  1.9052 -1.5361
  126OL     H4S 5587   0.127   4.747   5.240  0.2403 -0.7346  0.2914
  126OL     C15 5588   0.106   4.790   5.034 -0.6816 -0.4043 -0.4020
  126OL     H5R 5589   0.053   4.884   5.051 -0.3870 -0.3302  0.1260
  126OL     H5S 5590   0.062   4.752   4.941 -1.7254  1.4814 -0.7358
  126OL     C16 5591   0.258   4.802   5.008 -0.0212 -0.4124  0.5315
  126OL     H6R 5592   0.297   4.700   5.003  1.3484  0.1445 -1.3644
  126OL     H6S 5593   0.312   4.854   5.087 -0.3388  2.4001 -0.9934
  126OL     C17 5594   0.300   4.860   4.870 -0.3116 -0.0725 -0.5094
  126OL     H7R 5595   0.265   4.963   4.864  1.1393  0.4456 -0.3864
  126OL     H7S 5596   0.245   4.818   4.785  0.6945  1.6648 -2.0863
  126OL     C18 5597   0.446   4.866   4.842 -0.6355 -0.5089  0.0453
  126OL     H8R 5598   0.503   4.781   4.881 -0.0120 -0.0512  0.1392
  126OL     H8S 5599   0.479   4.957   4.892  0.7086 -1.0406  0.1571
  126OL     C19 5600   0.478   4.870   4.696 -0.3083  0.1442  0.4951
  126OL     H9R 5601   0.522   4.962   4.657 -0.4736  0.2138  0.4742
  126OL    C110 5602   0.474   4.775   4.604  0.0203  0.0768  0.7798
  126OL    H10R 5603   0.514   4.809   4.509  1.2496  1.3346  1.7153
  126OL    C111 5604   0.418   4.640   4.624  0.3671  0.1667 -0.0132
  126OL    H11R 5605   0.394   4.628   4.730  1.1794  0.7825  0.2505
  126OL    H11S 5606   0.498   4.566   4.615 -1.2274 -1.5642 -0.7854
  126OL    C112 5607   0.309   4.598   4.525 -0.1406 -0.8475  0.0758
  126OL    H12R 5608   0.244   4.686   4.515  1.4553  0.3935  0.1602
  126OL    H12S 5609   0.248   4.514   4.559 -0.6600 -0.6115 -0.2476
  126OL    C113 5610   0.353   4.570   4.381 -0.1745 -0.5702 -0.5968
  126OL    H13R 5611   0.457   4.534   4.382 -0.1542 -0.5095 -0.5507
  126OL    H13S 5612   0.355   4.663   4.324 -1.0980  0.7712  1.4653
  126OL    C114 5613   0.264   4.468   4.309 -0.1802 -0.9731 -0.8146
  126OL    H14R 5614   0.162   4.506   4.316  1.4242  4.0549  0.0038
  126OL    H14S 5615   0.277   4.368   4.350  0.6114  0.2262  2.0711
  126OL    C115 5616   0.283   4.460   4.165 -0.3364 -0.0284  0.6304
  126OL    H15R 5617   0.385   4.434   4.133 -0.4227 -0.5991  0.8051
  126OL    H15S 5618   0.267   4.555   4.114  1.6334  0.1700  0.2866
  126OL    C116 5619   0.190   4.359   4.101  0.3052  0.4190  0.1766
  126OL    H16R 5620   0.206   4.375   3.994  2.1812 -1.8000  0.0650
  126OL    H16S 5621   0.086   4.383   4.126  0.2133 -0.0401  0.2466
  126OL    C117 5622   0.228   4.209   4.127  0.8757 -0.3706  0.5211
  126OL    H17R 5623   0.335   4.201   4.147  0.4269 -0.7172  3.1405
  126OL    H17S 5624   0.211   4.158   4.032 -1.3601  2.1702 -0.5796
  126OL    C118 5625   0.159   4.128   4.241  0.7904  0.3145 -0.6347
  126OL    H18R 5626   0.056   4.159   4.257  0.9680 -0.3713  2.4084
  126OL    H18S 5627   0.212   4.137   4.336  0.2719 -3.3730  0.1545
  126OL    H18T 5628   0.144   4.021   4.226  0.7100 -0.0198  1.5291
  127PA    C116 5629   4.945   2.273   4.063 -0.0182 -0.8199  0.1559
  127PA    H16R 5630   4.864   2.243   3.996 -1.5392 -0.9087  1.9664
  127PA    H16S 5631   4.891   2.327   4.141  0.9087  0.9899 -0.3754
  127PA    H16T 5632   4.996   2.181   4.091  0.4326 -0.7530 -0.4095
  127PA    C115 5633   5.049   2.369   3.999 -0.6173 -0.3103 -0.5994
  127PA    H15R 5634   5.116   2.310   3.937  2.1487  1.3602  0.6027
  127PA    H15S 5635   5.005   2.437   3.926 -0.9159 -0.2057 -0.3263
  127PA    C114 5636   5.138   2.454   4.093  0.5687  0.9140 -0.7688
  127PA    H14R 5637   5.133   2.561   4.073 -0.6122  1.0783  0.3039
  127PA    H14S 5638   5.086   2.443   4.188 -0.9680 -0.3640 -1.7059
  127PA    C113 5639   5.285   2.401   4.093  0.0654 -0.2037 -0.4791
  127PA    H13R 5640   5.287   2.295   4.121 -0.0607  0.1230  0.8691
  127PA    H13S 5641   5.318   2.412   3.990 -0.2287 -0.3412 -0.5895
  127PA    C112 5642   5.387   2.465   4.190  0.3358  0.3922  0.0485
  127PA    H12R 5643   5.350   2.473   4.292  1.2010 -1.1925  0.5410
  127PA    H12S 5644   5.479   2.405   4.192 -1.6966 -3.0804 -1.8280
  127PA    C111 5645   5.415   2.611   4.135 -0.0474  0.3920 -0.4951
  127PA    H11R 5646   5.463   2.601   4.038 -0.4009 -3.2545 -0.4570
  127PA    H11S 5647   5.317   2.657   4.120  0.1579  1.2936  0.7670
  127PA    C110 5648   5.499   2.703   4.215  0.0191 -0.4190 -0.1617
  127PA    H10R 5649   5.604   2.678   4.198  0.0270 -2.2111  2.0732
  127PA    H10S 5650   5.486   2.805   4.178 -0.6812 -1.4756 -3.1180
  127PA     C19 5651   5.479   2.694   4.369  0.0754  0.1228 -0.0438
  127PA     H9R 5652   5.372   2.705   4.386 -0.0715 -0.9913 -0.1712
  127PA     H9S 5653   5.514   2.597   4.404 -1.1337  0.3027  1.8079
  127PA     C18 5654   5.550   2.811   4.434  1.1880  0.5078  0.4755
  127PA     H8R 5655   5.657   2.820   4.411  1.2857  2.3920  1.4882
  127PA     H8S 5656   5.490   2.894   4.397  0.9991  0.0479 -0.2656
  127PA     C17 5657   5.531   2.814   4.585 -0.3471 -0.1464  0.1525
  127PA     H7R 5658   5.424   2.826   4.602 -0.6276 -0.1281 -1.5344
  127PA     H7S 5659   5.552   2.719   4.635 -0.8584  0.1812  1.0276
  127PA     C16 5660   5.615   2.928   4.646  0.0340  0.2036  0.7161
  127PA     H6R 5661   5.722   2.909   4.651 -0.0247 -0.9674 -1.2308
  127PA     H6S 5662   5.600   3.012   4.579  2.4961 -1.6460 -2.4555
  127PA     C15 5663   5.567   2.964   4.783  0.3948  0.1357 -0.7066
  127PA     H5R 5664   5.459   2.972   4.793  0.5548  1.9857  0.0767
  127PA     H5S 5665   5.589   2.881   4.850 -0.6695  0.8049  0.5224
  127PA     C14 5666   5.638   3.087   4.839  0.2960  1.0065  0.3403
  127PA     H4R 5667   5.744   3.063   4.845  0.1780  0.8327  2.3539
  127PA     H4S 5668   5.621   3.174   4.775 -2.2037  0.0455 -0.4397
  127PA     C13 5669   5.585   3.124   4.971  0.0404  0.7569 -0.0730
  127PA     H3R 5670   5.648   3.200   5.015  0.3918 -0.0345  0.8115
  127PA     H3S 5671   5.486   3.164   4.947 -0.4447 -0.3420  0.0236
  127PA     C12 5672   5.564   3.007   5.080  0.4220  0.4938  0.5792
  127PA     H2R 5673   5.478   2.943   5.060  0.7439  0.7366 -1.9441
  127PA     H2S 5674   5.655   2.947   5.087  1.0959  1.2891 -1.0128
  128PC     C11 5675   5.561   3.069   5.218 -0.0807  1.3509  0.2581
  128PC     O12 5676   5.651   3.061   5.295  0.3404  0.1606  0.7911
  128PC     O11 5677   5.444   3.122   5.253  0.2250  0.0684 -0.0812
  128PC      C1 5678   5.430   3.169   5.395  0.1554 -0.1391  0.4602
  128PC      HR 5679   5.329   3.158   5.437  1.0820  1.2532  3.3121
  128PC      HS 5680   5.495   3.109   5.459  2.0357  1.0883 -0.2178
  128PC      C2 5681   5.478   3.314   5.387 -0.8752  0.4226  0.3919
  128PC      HX 5682   5.585   3.303   5.372 -0.5603 -0.1213  2.6762
  128PC      C3 5683   5.444   3.395   5.515 -0.9278 -0.3314  0.3836
  128PC      HA 5684   5.469   3.499   5.496 -1.7554  0.0468  1.2813
  128PC      HB 5685   5.340   3.386   5.548 -1.0610 -2.7755 -0.4419
  128PC     O31 5686   5.535   3.354   5.622 -0.4762  0.2553  0.3580
  128PC     P31 5687   5.521   3.429   5.762 -0.2498 -0.3201 -0.2716
  128PC     O32 5688   5.567   3.575   5.726  0.2132  0.2579  0.2030
  128PC     C31 5689   5.472   3.681   5.713 -0.7303  0.2487  0.0311
  128PC     H1A 5690   5.520   3.760   5.655  0.8332 -0.9039 -0.3004
  128PC     H1B 5691   5.386   3.642   5.658 -0.4896  0.3530 -0.4247
  128PC     C32 5692   5.445   3.731   5.859  0.2421  0.4143  0.1000
  128PC     H2A 5693   5.346   3.775   5.861 -0.1730 -0.5153  0.9226
  128PC     H2B 5694   5.440   3.644   5.925  1.4658  1.2573  1.3871
  128PC     N31 5695   5.548   3.833   5.911 -0.0765 -0.0456  0.1952
  128PC     C33 5696   5.502   3.863   6.053  0.3046  0.2778 -0.5719
  128PC     H3A 5697   5.579   3.909   6.115 -1.0389  3.0717 -0.8418
  128PC     H3B 5698   5.414   3.927   6.051  0.5831  0.7495  1.0058
  128PC     H3C 5699   5.472   3.767   6.097 -0.7249  0.0857 -1.6579
  128PC     C34 5700   5.687   3.779   5.895 -0.5799  0.1928 -0.1975
  128PC     H4A 5701   5.721   3.764   5.792  1.7358  1.4054  0.3321
  128PC     H4B 5702   5.749   3.847   5.953 -2.4380  0.0042  2.1997
  128PC     H4C 5703   5.691   3.685   5.950  2.6375 -0.4191 -1.2996
  128PC     C35 5704   5.542   3.961   5.839 -0.1441  0.3798 -0.0372
  128PC     H5A 5705   5.440   4.001   5.843  0.3930  1.7561  0.4776
  128PC     H5B 5706   5.570   3.924   5.740  1.2010 -0.8016  0.7467
  128PC     H5C 5707   5.617   4.028   5.880  1.7496 -1.4585 -0.3331
  128PC     O33 5708   5.374   3.431   5.788 -0.5398  0.2565 -0.2002
  128PC     O34 5709   5.611   3.378   5.865 -0.0115 -0.3252 -0.4568
  128PC     O21 5710   5.432   3.382   5.267  0.8129  0.3470  0.2156
  128PC     C21 5711   5.300   3.402   5.248  0.4842  0.5511  0.0673
  128PC     O22 5712   5.212   3.365   5.323  0.2164  0.6667 -0.8131
  129OL     C12 5713   5.268   3.474   5.119 -0.0583  0.4077  0.3953
  129OL     H2R 5714   5.280   3.577   5.154 -2.3384  0.8368  0.0942
  129OL     H2S 5715   5.164   3.452   5.095  0.6072 -1.9628 -0.6810
  129OL     C13 5716   5.358   3.450   4.997  0.1115  0.2933  0.5439
  129OL     H3R 5717   5.359   3.342   4.980  6.6763 -0.0824  0.6461
  129OL     H3S 5718   5.462   3.479   5.017  0.9368 -0.7937 -1.8266
  129OL     C14 5719   5.311   3.527   4.878  0.0697 -0.5882 -0.0879
  129OL     H4R 5720   5.307   3.635   4.899 -3.9363 -0.4366 -0.8390
  129OL     H4S 5721   5.211   3.493   4.851 -0.0266  1.2200 -2.2691
  129OL     C15 5722   5.390   3.495   4.746  0.0774 -0.6543 -0.8489
  129OL     H5R 5723   5.361   3.394   4.719 -2.4678 -0.5927  1.2615
  129OL     H5S 5724   5.496   3.490   4.774 -0.5408 -2.1843  1.5290
  129OL     C16 5725   5.364   3.595   4.629 -0.4449 -0.0015  0.8751
  129OL     H6R 5726   5.412   3.570   4.534  3.2407  1.3534  2.1798
  129OL     H6S 5727   5.410   3.691   4.653  0.9524  0.2804 -2.4218
  129OL     C17 5728   5.214   3.613   4.604  0.2122  0.1609  0.5395
  129OL     H7R 5729   5.211   3.674   4.514 -0.4644 -2.7514 -1.5745
  129OL     H7S 5730   5.167   3.680   4.676 -0.2338  2.6337 -1.8915
  129OL     C18 5731   5.131   3.492   4.572 -0.4928  0.4979  0.3155
  129OL     H8R 5732   5.026   3.522   4.577 -0.6239  0.7600 -2.5779
  129OL     H8S 5733   5.140   3.419   4.653 -0.9335 -0.2921 -0.3411
  129OL     C19 5734   5.181   3.432   4.436 -0.0107  0.1577 -0.6040
  129OL     H9R 5735   5.252   3.352   4.452 -1.7252 -0.9469  2.3521
  129OL    C110 5736   5.133   3.464   4.314  0.2089  0.0592 -0.1128
  129OL    H10R 5737   5.173   3.405   4.232 -0.6857  1.3641 -1.5464
  129OL    C111 5738   5.023   3.562   4.283 -0.5629  0.0043 -0.4757
  129OL    H11R 5739   5.069   3.641   4.224 -0.2388  0.9921  1.0466
  129OL    H11S 5740   4.984   3.620   4.367  0.2515 -0.2895  0.1233
  129OL    C112 5741   4.917   3.497   4.196  0.2530  0.0272 -0.1636
  129OL    H12R 5742   4.868   3.418   4.255 -2.2150 -0.4944 -2.7046
  129OL    H12S 5743   4.960   3.454   4.106  0.8248 -2.4989  1.2188
  129OL    C113 5744   4.808   3.602   4.161  0.4937 -0.7268  0.0402
  129OL    H13R 5745   4.846   3.691   4.109 -0.7908 -0.0447  0.2388
  129OL    H13S 5746   4.766   3.653   4.248 -0.4000  0.7654 -1.1944
  129OL    C114 5747   4.696   3.547   4.070  0.1309  0.2349  0.0577
  129OL    H14R 5748   4.621   3.624   4.048 -0.7307 -0.8927 -1.1011
  129OL    H14S 5749   4.638   3.473   4.124 -1.4952  1.4487  0.0691
  129OL    C115 5750   4.745   3.489   3.935  0.0805  0.1507 -0.5374
  129OL    H15R 5751   4.658   3.451   3.881 -0.8998  2.1941 -0.5175
  129OL    H15S 5752   4.806   3.402   3.959 -1.0410 -0.3530  0.6735
  129OL    C116 5753   4.828   3.588   3.851 -0.1795  0.3122 -0.4956
  129OL    H16R 5754   4.920   3.613   3.905  0.4947 -2.3721 -0.2486
  129OL    H16S 5755   4.778   3.683   3.830 -1.0196  0.3727  1.5826
  129OL    C117 5756   4.872   3.516   3.724  0.0779  0.3981 -0.1699
  129OL    H17R 5757   4.916   3.419   3.748  1.4474  1.5906  2.4785
  129OL    H17S 5758   4.954   3.570   3.676  2.2258 -0.9388  1.8265
  129OL    C118 5759   4.768   3.501   3.618  0.6168  0.0423 -0.9515
  129OL    H18R 5760   4.685   3.440   3.654 -0.1232  0.8326 -1.2814
  129OL    H18S 5761   4.814   3.453   3.531 -0.1257  1.0215 -1.9062
  129OL    H18T 5762   4.742   3.600   3.579  1.9157  1.0272  0.5649
  130PA    C116 5763   1.362   0.716   4.269 -0.3390 -0.2456 -0.1242
  130PA    H16R 5764   1.261   0.743   4.300 -0.6683  0.2043 -1.5337
  130PA    H16S 5765   1.397   0.635   4.334 -2.0208 -0.6634  0.3208
  130PA    H16T 5766   1.368   0.672   4.170  1.6428  2.5155 -1.3705
  130PA    C115 5767   1.457   0.836   4.289  0.2808 -0.1783 -0.3234
  130PA    H15R 5768   1.459   0.855   4.396  0.7029 -2.9218  0.2264
  130PA    H15S 5769   1.562   0.815   4.269  0.0802 -0.8942 -0.6633
  130PA    C114 5770   1.407   0.963   4.222 -0.2197  0.0020  0.5353
  130PA    H14R 5771   1.394   0.938   4.116 -0.8166 -0.3097  0.6789
  130PA    H14S 5772   1.310   0.989   4.263 -0.4436  0.3226 -0.1757
  130PA    C113 5773   1.501   1.086   4.233  0.9604  0.0027 -0.0544
  130PA    H13R 5774   1.597   1.067   4.184  1.1907 -0.1631  0.4510
  130PA    H13S 5775   1.457   1.178   4.194  0.0391  0.6763  2.4161
  130PA    C112 5776   1.535   1.123   4.381  0.4511 -0.2647  0.6215
  130PA    H12R 5777   1.608   1.051   4.419  2.0809  0.2092 -1.4466
  130PA    H12S 5778   1.587   1.218   4.378  2.1980 -1.1982 -0.4226
  130PA    C111 5779   1.406   1.133   4.473 -0.4719  0.2962 -0.1831
  130PA    H11R 5780   1.316   1.163   4.420 -0.3268  1.7268  0.3409
  130PA    H11S 5781   1.388   1.036   4.520 -2.4937  1.0570  0.6893
  130PA    C110 5782   1.424   1.228   4.597 -0.0426 -0.3656 -0.5093
  130PA    H10R 5783   1.470   1.321   4.562 -1.5360 -0.4147 -2.8874
  130PA    H10S 5784   1.323   1.254   4.630  0.4430 -0.3540  1.0067
  130PA     C19 5785   1.492   1.164   4.722 -0.1669 -0.0910 -0.3480
  130PA     H9R 5786   1.473   1.057   4.712 -0.9950 -0.2115  1.9176
  130PA     H9S 5787   1.601   1.162   4.712 -0.0562 -0.0694  0.7248
  130PA     C18 5788   1.443   1.214   4.863  0.1676 -0.2402 -0.1598
  130PA     H8R 5789   1.487   1.312   4.883 -2.0478  0.4675  1.7540
  130PA     H8S 5790   1.338   1.242   4.872  0.5496  1.7776 -1.2864
  130PA     C17 5791   1.487   1.115   4.970  0.1338 -0.0539  0.1382
  130PA     H7R 5792   1.416   1.032   4.966  4.0053 -3.7280 -0.0608
  130PA     H7S 5793   1.586   1.074   4.948  1.2080  1.0099  2.5951
  130PA     C16 5794   1.482   1.179   5.109  0.2655 -0.1624  0.4507
  130PA     H6R 5795   1.516   1.109   5.186 -0.5824  1.9065  2.8066
  130PA     H6S 5796   1.550   1.264   5.103 -0.4014  0.3180 -0.7602
  130PA     C15 5797   1.336   1.235   5.129  0.3297 -0.4864  0.1908
  130PA     H5R 5798   1.307   1.316   5.063  0.1795  0.0350  0.8925
  130PA     H5S 5799   1.270   1.150   5.110 -1.5709  0.8420  0.5779
  130PA     C14 5800   1.318   1.287   5.275  0.2541  0.4393 -0.4576
  130PA     H4R 5801   1.213   1.312   5.290  0.1017 -0.2106 -0.3925
  130PA     H4S 5802   1.342   1.206   5.345 -1.5206 -0.0462 -0.3756
  130PA     C13 5803   1.398   1.418   5.311  0.1080  0.3020 -0.0331
  130PA     H3R 5804   1.495   1.407   5.261  0.4912 -0.5083  0.8254
  130PA     H3S 5805   1.341   1.504   5.277 -2.1772 -1.0240  0.2786
  130PA     C12 5806   1.407   1.415   5.459  0.6584  0.7667  0.0254
  130PA     H2R 5807   1.304   1.420   5.492 -0.1216  3.6956 -2.4351
  130PA     H2S 5808   1.452   1.324   5.498  2.0427  2.6369  3.1758
  131PC     C11 5809   1.486   1.530   5.515 -0.0404 -0.5080 -0.0284
  131PC     O12 5810   1.587   1.525   5.579  0.0639 -0.1943  0.2008
  131PC     O11 5811   1.420   1.644   5.488 -0.0238 -0.1446 -0.6620
  131PC      C1 5812   1.483   1.769   5.534 -0.4060  0.0587  0.4665
  131PC      HR 5813   1.412   1.850   5.551  0.4234  1.1884 -1.1752
  131PC      HS 5814   1.534   1.740   5.627  0.8453 -2.1042 -0.7885
  131PC      C2 5815   1.609   1.819   5.451 -0.1438 -0.6167 -0.2328
  131PC      HX 5816   1.696   1.754   5.466  1.2796  1.0991 -0.6909
  131PC      C3 5817   1.653   1.959   5.493  0.3733  0.6773 -0.0974
  131PC      HA 5818   1.743   1.993   5.442 -0.9756  2.1410 -1.5942
  131PC      HB 5819   1.580   2.035   5.463 -0.5459  0.3832  1.2527
  131PC     O31 5820   1.658   1.962   5.644 -0.1551 -0.5402 -0.2839
  131PC     P31 5821   1.776   1.889   5.726  0.1389  0.2277 -0.1782
  131PC     O32 5822   1.867   2.010   5.785  0.2023  0.1645  0.0164
  131PC     C31 5823   1.814   2.107   5.880 -0.2384  0.4900 -0.1467
  131PC     H1A 5824   1.862   2.204   5.861  2.3482 -1.0661 -2.0910
  131PC     H1B 5825   1.710   2.130   5.854  0.0725  1.4344 -0.6078
  131PC     C32 5826   1.845   2.055   6.024 -0.5434  0.4325 -0.6200
  131PC     H2A 5827   1.767   1.980   6.044  0.8104 -1.3914 -1.8664
  131PC     H2B 5828   1.942   2.005   6.025 -0.5779  0.3452 -1.2441
  131PC     N31 5829   1.849   2.154   6.135  0.2789 -0.2428 -0.5151
  131PC     C33 5830   1.871   2.083   6.260 -0.0547 -0.4593  0.2707
  131PC     H3A 5831   1.962   2.028   6.236 -0.8510 -0.3848 -3.5664
  131PC     H3B 5832   1.859   2.153   6.343  1.2761 -0.2342  0.2946
  131PC     H3C 5833   1.797   2.005   6.276 -0.5734 -0.9159 -3.4300
  131PC     C34 5834   1.967   2.242   6.120 -0.6264  0.2719 -0.3005
  131PC     H4A 5835   1.978   2.275   6.017  1.1029  0.1073 -0.2087
  131PC     H4B 5836   1.960   2.326   6.189 -0.5961 -0.2602  0.3624
  131PC     H4C 5837   2.057   2.184   6.144 -0.2484  1.0156  0.1194
  131PC     C35 5838   1.724   2.237   6.152 -0.3983  0.0207  0.3533
  131PC     H5A 5839   1.638   2.187   6.198 -0.3633  1.5607  2.2329
  131PC     H5B 5840   1.688   2.262   6.052 -1.5106  0.6055  0.8866
  131PC     H5C 5841   1.758   2.323   6.209  0.9183 -0.7410  0.7683
  131PC     O33 5842   1.718   1.813   5.841 -0.0958  0.4349  0.0014
  131PC     O34 5843   1.863   1.814   5.631 -0.0055  0.5143 -0.4231
  131PC     O21 5844   1.567   1.828   5.314 -0.1465  0.6268 -0.0216
  131PC     C21 5845   1.582   1.709   5.240 -0.4107 -0.2638 -0.2038
  131PC     O22 5846   1.661   1.621   5.272  0.1733 -0.1826  0.2270
  132OL     C12 5847   1.493   1.715   5.123 -0.6606  0.1336  0.2682
  132OL     H2R 5848   1.488   1.821   5.095  1.6737  0.2016 -0.0970
  132OL     H2S 5849   1.394   1.681   5.155 -0.9034  1.7966  1.4302
  132OL     C13 5850   1.537   1.628   5.004  0.6888 -0.9498 -0.2790
  132OL     H3R 5851   1.464   1.636   4.923  2.0021 -0.6027 -1.4439
  132OL     H3S 5852   1.533   1.523   5.035  0.1062 -0.3939  1.7377
  132OL     C14 5853   1.674   1.667   4.943  0.5162 -0.1569  0.1738
  132OL     H4R 5854   1.749   1.663   5.023 -1.0000 -1.4049  1.6077
  132OL     H4S 5855   1.679   1.771   4.909  0.2707  0.3746  1.6810
  132OL     C15 5856   1.691   1.565   4.817 -0.1044 -0.0292  0.0291
  132OL     H5R 5857   1.606   1.565   4.749 -1.5344  1.6127  1.7087
  132OL     H5S 5858   1.712   1.464   4.853 -0.1465 -0.0291  0.0546
  132OL     C16 5859   1.808   1.611   4.731 -0.6747 -0.2977  0.3715
  132OL     H6R 5860   1.906   1.585   4.771 -0.0236  1.7216  0.2062
  132OL     H6S 5861   1.812   1.718   4.707  1.1646 -0.6289 -1.0159
  132OL     C17 5862   1.796   1.535   4.598  0.4998  0.2425  0.0395
  132OL     H7R 5863   1.697   1.539   4.552  0.9601 -0.6476 -1.0669
  132OL     H7S 5864   1.815   1.430   4.619  0.4412  0.3047  0.4140
  132OL     C18 5865   1.902   1.595   4.496  0.2470 -0.3535  0.3703
  132OL     H8R 5866   1.999   1.591   4.546  0.5657  0.8635 -0.1313
  132OL     H8S 5867   1.875   1.698   4.472  0.3074 -0.2082  0.9040
  132OL     C19 5868   1.913   1.510   4.366 -0.0626  0.6225  0.6658
  132OL     H9R 5869   1.826   1.499   4.302  2.6198 -1.4063 -3.0767
  132OL    C110 5870   2.028   1.459   4.321 -0.9396  0.1170 -0.5358
  132OL    H10R 5871   2.019   1.394   4.234 -1.9506 -1.0463  0.3954
  132OL    C111 5872   2.161   1.471   4.390  0.1558  0.4692 -0.0634
  132OL    H11R 5873   2.150   1.419   4.486 -0.3923  0.1160 -0.3106
  132OL    H11S 5874   2.176   1.575   4.421 -0.3535  0.1849  1.2380
  132OL    C112 5875   2.272   1.426   4.294 -0.0041 -0.0280  0.0511
  132OL    H12R 5876   2.370   1.465   4.323  0.1034 -1.2011  1.3415
  132OL    H12S 5877   2.235   1.473   4.203 -3.2692 -0.1291  1.2093
  132OL    C113 5878   2.286   1.275   4.271  1.1316 -0.4603  0.1491
  132OL    H13R 5879   2.186   1.235   4.288  0.1050  2.0453  0.4518
  132OL    H13S 5880   2.355   1.234   4.345  1.4643  0.3794  0.3107
  132OL    C114 5881   2.329   1.251   4.124 -0.0179  0.4718 -0.0860
  132OL    H14R 5882   2.438   1.262   4.121  0.1591  0.5222  3.3860
  132OL    H14S 5883   2.300   1.329   4.053  2.2121 -0.4365 -2.1494
  132OL    C115 5884   2.276   1.127   4.055  0.4047 -0.2178  0.0716
  132OL    H15R 5885   2.292   1.134   3.947 -1.4980 -1.7866 -0.3889
  132OL    H15S 5886   2.167   1.124   4.070  0.3255  3.3755  1.1400
  132OL    C116 5887   2.347   0.999   4.102 -0.2370 -0.5200 -0.6568
  132OL    H16R 5888   2.329   0.976   4.207  0.2977  1.7915  0.0035
  132OL    H16S 5889   2.456   1.012   4.109  0.0374 -2.7223  0.0721
  132OL    C117 5890   2.308   0.874   4.012 -0.4211  0.7562 -0.1668
  132OL    H17R 5891   2.314   0.901   3.907  1.4262  0.8285 -0.0651
  132OL    H17S 5892   2.204   0.846   4.032 -0.4081  0.8143 -0.0082
  132OL    C118 5893   2.411   0.765   4.051  0.1559  0.5250  0.0229
  132OL    H18R 5894   2.395   0.748   4.157  0.1646 -1.0574 -0.2066
  132OL    H18S 5895   2.512   0.801   4.031 -0.3628  1.6885 -0.6133
  132OL    H18T 5896   2.390   0.669   4.004  0.0947  0.6190 -0.1429
  133PA    C116 5897   4.729   5.992   4.803 -0.0958 -0.1024  0.4252
  133PA    H16R 5898   4.651   5.922   4.773 -1.2946  1.8867 -1.3924
  133PA    H16S 5899   4.685   6.066   4.869 -1.0565 -2.4425  2.5719
  133PA    H16T 5900   4.809   5.935   4.851 -0.5959 -0.7043  0.5589
  133PA    C115 5901   4.777   6.057   4.672 -0.5980 -0.1352 -1.4366
  133PA    H15R 5902   4.851   6.131   4.703 -1.4066  0.6293 -1.3240
  133PA    H15S 5903   4.833   5.985   4.612 -0.4902  0.1826 -1.7196
  133PA    C114 5904   4.664   6.115   4.589  0.0783  0.8260  0.3957
  133PA    H14R 5905   4.578   6.048   4.584  2.3276 -2.2712  0.1943
  133PA    H14S 5906   4.634   6.205   4.644  1.3465  0.8228  1.1301
  133PA    C113 5907   4.706   6.159   4.448  0.1583  0.3539 -0.1036
  133PA    H13R 5908   4.797   6.220   4.455  0.3255 -0.0491  2.1571
  133PA    H13S 5909   4.721   6.075   4.380 -3.2063  1.3280 -2.2873
  133PA    C112 5910   4.597   6.246   4.382  0.3301  0.1159 -0.0328
  133PA    H12R 5911   4.626   6.267   4.279 -1.0569  0.5186 -0.3641
  133PA    H12S 5912   4.509   6.181   4.382  0.8401 -0.5848  0.2682
  133PA    C111 5913   4.564   6.375   4.464 -0.2171 -0.0457  0.2986
  133PA    H11R 5914   4.492   6.428   4.402  0.4525 -1.0042 -1.3680
  133PA    H11S 5915   4.524   6.353   4.563  1.2257  2.7677  1.6185
  133PA    C110 5916   4.688   6.472   4.473  0.2038 -0.0990 -0.7184
  133PA    H10R 5917   4.747   6.462   4.382 -1.2379  2.6451 -2.0889
  133PA    H10S 5918   4.647   6.574   4.476 -1.9297 -0.9154  1.0648
  133PA     C19 5919   4.772   6.463   4.596 -0.3964 -0.0108 -0.1071
  133PA     H9R 5920   4.839   6.377   4.586 -1.4795 -0.8393 -0.4437
  133PA     H9S 5921   4.834   6.552   4.587  3.5638 -2.3493  1.3271
  133PA     C18 5922   4.705   6.473   4.736  0.2078 -0.2187 -0.4176
  133PA     H8R 5923   4.673   6.577   4.744  0.2837 -0.1438 -1.0730
  133PA     H8S 5924   4.614   6.413   4.733 -0.6181  0.9904 -0.1838
  133PA     C17 5925   4.790   6.426   4.859  0.2219 -0.1430 -0.2440
  133PA     H7R 5926   4.795   6.317   4.865 -0.2654 -0.1713 -0.3456
  133PA     H7S 5927   4.893   6.454   4.835 -0.2815  3.1214  0.8515
  133PA     C16 5928   4.760   6.487   4.995 -0.3125 -0.2922 -1.0227
  133PA     H6R 5929   4.775   6.595   5.001  0.1404 -0.4445  1.8449
  133PA     H6S 5930   4.657   6.471   5.028  0.5334  1.0030  2.7061
  133PA     C15 5931   4.847   6.430   5.107  0.1454 -0.7621 -0.4896
  133PA     H5R 5932   4.856   6.321   5.110  0.3105 -0.7380  0.0825
  133PA     H5S 5933   4.952   6.462   5.101  1.1897 -3.5925  0.9059
  133PA     C14 5934   4.803   6.470   5.250  0.2091 -0.4606  0.0218
  133PA     H4R 5935   4.700   6.442   5.271  0.6438 -1.9025  0.3420
  133PA     H4S 5936   4.859   6.407   5.320  1.4838 -1.9996 -2.2145
  133PA     C13 5937   4.838   6.612   5.279  0.0493  0.2881 -0.1109
  133PA     H3R 5938   4.946   6.625   5.273 -0.1856  2.1019 -0.9903
  133PA     H3S 5939   4.803   6.671   5.194 -0.7715 -1.8020 -1.3114
  133PA     C12 5940   4.787   6.655   5.421 -0.1753  0.1827 -0.6883
  133PA     H2R 5941   4.686   6.624   5.450  0.4922 -1.0672  0.3866
  133PA     H2S 5942   4.850   6.614   5.500 -0.9395  0.6616  0.2122
  134PC     C11 5943   4.794   6.806   5.435  0.0010 -0.1916 -0.0446
  134PC     O12 5944   4.869   6.878   5.369  0.4744 -0.0910 -0.6145
  134PC     O11 5945   4.708   6.849   5.522 -0.0657  0.0149  0.1526
  134PC      C1 5946   4.694   6.992   5.553 -0.9832 -0.1527 -0.5614
  134PC      HR 5947   4.679   7.013   5.659  2.2447  0.1202 -0.0488
  134PC      HS 5948   4.781   7.053   5.526 -1.3078  0.6857  0.2586
  134PC      C2 5949   4.576   7.056   5.473 -0.0049  0.4772  0.2671
  134PC      HX 5950   4.566   7.161   5.503  0.3871  0.0363  2.0443
  134PC      C3 5951   4.442   6.989   5.505 -0.0687  0.1704 -0.0669
  134PC      HA 5952   4.355   7.027   5.451 -0.2917 -0.1027  0.0902
  134PC      HB 5953   4.455   6.881   5.490  3.1261  0.7057 -2.0065
  134PC     O31 5954   4.409   7.005   5.648  0.4792 -0.3856  0.3259
  134PC     P31 5955   4.338   7.138   5.712 -0.1659  0.2485  0.0712
  134PC     O32 5956   4.207   7.090   5.773  0.2715  0.0107 -0.6132
  134PC     C31 5957   4.185   7.053   5.909  0.0515  0.3423 -0.5391
  134PC     H1A 5958   4.094   6.995   5.930  0.9342 -1.3971 -1.3291
  134PC     H1B 5959   4.269   6.994   5.944  0.3711  2.0726  1.9181
  134PC     C32 5960   4.200   7.188   5.992 -0.7102  0.0942 -0.1242
  134PC     H2A 5961   4.270   7.262   5.952  1.1177 -1.8486 -0.7489
  134PC     H2B 5962   4.108   7.246   5.987 -0.1939  0.9039 -0.4029
  134PC     N31 5963   4.249   7.174   6.130  0.4871  0.1349  0.6714
  134PC     C33 5964   4.187   7.066   6.209  0.0419 -0.3260  1.1469
  134PC     H3A 5965   4.202   7.063   6.316 -1.6582 -1.0687  1.3950
  134PC     H3B 5966   4.080   7.082   6.193  0.5675  1.1357 -1.7201
  134PC     H3C 5967   4.214   6.972   6.161  0.8591  1.4823 -2.3156
  134PC     C34 5968   4.392   7.155   6.128 -0.2490 -0.3117 -0.1730
  134PC     H4A 5969   4.425   7.064   6.077 -0.3786  0.4839 -1.7242
  134PC     H4B 5970   4.447   7.235   6.078  1.6775 -0.7779  1.0875
  134PC     H4C 5971   4.430   7.149   6.230  1.0262  2.7346 -0.3647
  134PC     C35 5972   4.229   7.306   6.195 -0.2545  0.0474  0.1615
  134PC     H5A 5973   4.289   7.299   6.286 -1.1681  1.8100  0.9509
  134PC     H5B 5974   4.124   7.332   6.209  0.0245  0.6974  1.1933
  134PC     H5C 5975   4.267   7.382   6.127 -0.7555 -0.0706 -0.2555
  134PC     O33 5976   4.441   7.187   5.808  0.5760  0.4315  0.4639
  134PC     O34 5977   4.304   7.231   5.606 -0.8939 -0.2179  0.7905
  134PC     O21 5978   4.591   7.040   5.330  0.2548 -0.1002 -0.2097
  134PC     C21 5979   4.682   7.119   5.267 -0.0679 -0.0832 -0.3473
  134PC     O22 5980   4.749   7.205   5.321  0.1977  0.5063 -0.3911
  135OL     C12 5981   4.675   7.101   5.117  0.0754  0.1815  0.0492
  135OL     H2R 5982   4.682   6.999   5.078  1.3528  0.1473  0.3101
  135OL     H2S 5983   4.770   7.143   5.084 -0.2623 -0.3905 -1.7418
  135OL     C13 5984   4.557   7.177   5.061 -0.0095 -0.1174  0.2331
  135OL     H3R 5985   4.569   7.276   5.107 -0.2775 -0.5344  1.2353
  135OL     H3S 5986   4.467   7.128   5.099 -1.9390  1.2077 -2.2917
  135OL     C14 5987   4.553   7.196   4.908  0.0053  0.2343 -0.3679
  135OL     H4R 5988   4.533   7.103   4.856  1.9397 -0.3843 -0.0533
  135OL     H4S 5989   4.651   7.223   4.870  1.2351 -0.2510  2.2374
  135OL     C15 5990   4.449   7.302   4.866  0.6107 -1.2088 -0.3309
  135OL     H5R 5991   4.472   7.390   4.926 -0.7415 -2.3061  1.9260
  135OL     H5S 5992   4.351   7.265   4.896  0.6875 -0.5374  0.8498
  135OL     C16 5993   4.434   7.343   4.721 -0.0233  0.4700  0.3241
  135OL     H6R 5994   4.359   7.419   4.699  0.0176  1.2078  2.4381
  135OL     H6S 5995   4.393   7.256   4.670 -0.1181  0.9640 -0.4634
  135OL     C17 5996   4.558   7.399   4.644  0.3740  0.6888 -0.3106
  135OL     H7R 5997   4.628   7.317   4.660 -3.0510 -2.3847  0.3455
  135OL     H7S 5998   4.597   7.490   4.691  1.0542 -0.3575  1.2411
  135OL     C18 5999   4.545   7.410   4.496 -0.1191 -0.7836  0.0866
  135OL     H8R 6000   4.529   7.305   4.468  0.2699 -0.9102  0.3267
  135OL     H8S 6001   4.637   7.435   4.442 -1.1783  2.4847 -0.3853
  135OL     C19 6002   4.423   7.491   4.443  0.6285  0.1159  0.2229
  135OL     H9R 6003   4.327   7.467   4.488 -0.4302  4.4448  0.7386
  135OL    C110 6004   4.424   7.577   4.342  0.0538  0.0784  0.0007
  135OL    H10R 6005   4.332   7.617   4.301  0.4532  0.6800 -0.3139
  135OL    C111 6006   4.551   7.631   4.278  0.1694  0.4421  0.1388
  135OL    H11R 6007   4.637   7.576   4.315  0.2403  0.7378  0.4204
  135OL    H11S 6008   4.564   7.733   4.314  0.5389  0.4614 -0.0453
  135OL    C112 6009   4.555   7.611   4.122 -0.1561 -0.0807  0.7386
  135OL    H12R 6010   4.643   7.658   4.079  2.1329 -0.5543  4.4407
  135OL    H12S 6011   4.466   7.668   4.097 -1.0656 -1.7826 -0.0884
  135OL    C113 6012   4.525   7.466   4.063  0.0582  0.0919  0.0932
  135OL    H13R 6013   4.418   7.447   4.075  0.2719 -2.6750 -1.4907
  135OL    H13S 6014   4.572   7.384   4.118  0.4549 -1.0239 -1.8190
  135OL    C114 6015   4.561   7.433   3.916  0.4352 -0.0394  0.5843
  135OL    H14R 6016   4.556   7.325   3.902  1.0704  0.1537 -1.6185
  135OL    H14S 6017   4.667   7.447   3.892  1.0093 -4.7264 -0.5486
  135OL    C115 6018   4.468   7.493   3.804 -0.3309  0.0047 -0.1138
  135OL    H15R 6019   4.365   7.484   3.840 -0.2327 -0.3078  0.0906
  135OL    H15S 6020   4.487   7.422   3.724  0.6450 -0.9611  0.9411
  135OL    C116 6021   4.517   7.640   3.766  0.0057  0.0688 -0.3834
  135OL    H16R 6022   4.603   7.619   3.703 -0.0401 -2.0400  0.1945
  135OL    H16S 6023   4.551   7.680   3.862  2.9973  2.0034 -2.0882
  135OL    C117 6024   4.412   7.719   3.687  0.4954 -0.6077  0.2673
  135OL    H17R 6025   4.313   7.700   3.730  0.3380 -1.1134 -0.3186
  135OL    H17S 6026   4.420   7.698   3.580  1.8367  0.3642  0.1436
  135OL    C118 6027   4.443   7.871   3.715 -0.0369  0.4843  0.1323
  135OL    H18R 6028   4.395   7.905   3.808 -1.4330 -0.5687 -0.1696
  135OL    H18S 6029   4.396   7.934   3.639 -2.5156 -0.0020  1.1392
  135OL    H18T 6030   4.551   7.881   3.724 -0.0699 -0.0609  1.4139
  136PA    C116 6031   2.303   0.682   4.396 -0.2899  0.0959 -0.6788
  136PA    H16R 6032   2.225   0.630   4.451 -0.0023  2.0783  1.8192
  136PA    H16S 6033   2.291   0.648   4.293 -0.1676  0.2253 -0.7369
  136PA    H16T 6034   2.291   0.790   4.402  2.3477  0.4852 -0.9130
  136PA    C115 6035   2.435   0.618   4.453  0.4043 -0.2484  0.2489
  136PA    H15R 6036   2.439   0.510   4.439 -2.2595 -0.7981  2.7190
  136PA    H15S 6037   2.510   0.658   4.385 -0.1202  1.6730  0.7362
  136PA    C114 6038   2.459   0.652   4.602 -0.2632  0.2285  0.3338
  136PA    H14R 6039   2.486   0.757   4.614  1.6800 -0.3698  1.6329
  136PA    H14S 6040   2.365   0.636   4.655 -0.8953 -0.7495 -1.0123
  136PA    C113 6041   2.581   0.572   4.655  0.3738 -0.2111  0.3499
  136PA    H13R 6042   2.547   0.469   4.644  0.0816  0.1327 -2.9998
  136PA    H13S 6043   2.661   0.594   4.584  1.2982  0.4917  1.5555
  136PA    C112 6044   2.627   0.605   4.796 -0.4379  0.7783  0.0105
  136PA    H12R 6045   2.695   0.523   4.819 -2.1942 -0.4325  1.2148
  136PA    H12S 6046   2.676   0.701   4.810 -1.9140  1.3055  2.0614
  136PA    C111 6047   2.507   0.600   4.888 -0.2940  0.1770 -0.1431
  136PA    H11R 6048   2.433   0.673   4.853 -2.3029 -1.0611  1.3263
  136PA    H11S 6049   2.470   0.498   4.896 -0.1543  0.2662  2.4889
  136PA    C110 6050   2.548   0.645   5.030  0.7210 -0.2034 -0.4625
  136PA    H10R 6051   2.632   0.584   5.066  0.2777 -0.4151  0.2283
  136PA    H10S 6052   2.588   0.746   5.038 -0.2755  0.1021  1.2348
  136PA     C19 6053   2.443   0.626   5.136  0.7996  0.4646 -0.1377
  136PA     H9R 6054   2.480   0.668   5.230  1.7694 -1.6312  0.4722
  136PA     H9S 6055   2.350   0.680   5.117  0.2983 -0.3752 -0.1107
  136PA     C18 6056   2.390   0.484   5.160  0.5027 -0.4057 -0.4443
  136PA     H8R 6057   2.312   0.477   5.237  0.3474 -3.1036 -0.7462
  136PA     H8S 6058   2.346   0.456   5.064  1.5292 -0.3821 -0.9256
  136PA     C17 6059   2.494   0.376   5.186  0.2748  0.4661  0.3520
  136PA     H7R 6060   2.563   0.383   5.102 -1.7048 -0.4318 -1.4532
  136PA     H7S 6061   2.552   0.383   5.278  0.9241 -0.5164  0.0319
  136PA     C16 6062   2.424   0.236   5.183  0.4708 -0.5039  0.4298
  136PA     H6R 6063   2.328   0.243   5.235 -0.5346  2.7618 -1.5285
  136PA     H6S 6064   2.400   0.213   5.078  1.0274 -0.1977  0.2355
  136PA     C15 6065   2.487   0.117   5.251 -0.6319  0.7295  0.8902
  136PA     H5R 6066   2.426   0.026   5.241  1.4703 -0.5507 -1.4556
  136PA     H5S 6067   2.572   0.095   5.186 -2.0998 -1.5944 -0.4032
  136PA     C14 6068   2.538   0.134   5.390  0.5843 -0.1753  0.2670
  136PA     H4R 6069   2.620   0.206   5.397  0.9691 -0.5498 -0.2751
  136PA     H4S 6070   2.450   0.166   5.445  0.5451 -1.5343  1.0290
  136PA     C13 6071   2.595   0.008   5.464  0.6637  0.3695 -0.5063
  136PA     H3R 6072   2.506  -0.044   5.500  0.3528  0.5257 -1.0421
  136PA     H3S 6073   2.653  -0.052   5.393  0.8263  0.3422 -0.3509
  136PA     C12 6074   2.682   0.059   5.581 -0.1332  0.2526  0.0284
  136PA     H2R 6075   2.775   0.099   5.542 -0.6493 -0.8686 -2.5697
  136PA     H2S 6076   2.627   0.136   5.635 -1.5683  0.3954 -1.5238
  137PC     C11 6077   2.727  -0.052   5.674  0.6629 -0.4609  0.1078
  137PC     O12 6078   2.659  -0.137   5.722  0.1814  0.9460 -0.3544
  137PC     O11 6079   2.856  -0.038   5.704  0.7231 -0.4714  0.5417
  137PC      C1 6080   2.904  -0.127   5.803 -0.5180 -0.5062  0.3064
  137PC      HR 6081   2.997  -0.090   5.849 -0.2512 -3.1253  2.1026
  137PC      HS 6082   2.832  -0.149   5.882 -2.0120  0.7939 -0.6629
  137PC      C2 6083   2.957  -0.252   5.720  0.7112  0.0897 -0.2985
  137PC      HX 6084   2.868  -0.308   5.689  0.3484 -0.2579  1.2508
  137PC      C3 6085   3.032  -0.351   5.814 -0.1244  1.3596 -0.3026
  137PC      HA 6086   2.962  -0.428   5.847  1.3476 -1.1109 -2.5587
  137PC      HB 6087   3.104  -0.398   5.746 -0.0551 -0.3293  0.8739
  137PC     O31 6088   3.097  -0.293   5.929  0.5839 -0.3888 -0.8894
  137PC     P31 6089   3.051  -0.348   6.074 -0.3966  0.1529  0.3388
  137PC     O32 6090   3.078  -0.500   6.063 -0.8462  0.3785 -0.0092
  137PC     C31 6091   3.204  -0.559   6.079 -0.7509 -0.7062 -0.6293
  137PC     H1A 6092   3.190  -0.661   6.042 -0.8775 -0.8611 -0.1529
  137PC     H1B 6093   3.277  -0.512   6.011 -1.1023 -0.2431 -0.6916
  137PC     C32 6094   3.257  -0.558   6.226 -0.3809  0.2668  0.8018
  137PC     H2A 6095   3.349  -0.616   6.219 -1.1731 -0.8278 -1.5823
  137PC     H2B 6096   3.283  -0.459   6.266  0.4322  0.0424  0.8547
  137PC     N31 6097   3.172  -0.630   6.322 -0.3871  0.1618 -0.1640
  137PC     C33 6098   3.073  -0.535   6.366 -0.0164  0.1119  0.3760
  137PC     H3A 6099   2.984  -0.532   6.303 -0.0903  1.8164  0.5384
  137PC     H3B 6100   3.056  -0.557   6.471 -1.8981  0.2390  0.1297
  137PC     H3C 6101   3.124  -0.439   6.369 -1.7061  1.0276  1.2328
  137PC     C34 6102   3.107  -0.749   6.259  1.4882  0.1025  0.4923
  137PC     H4A 6103   3.185  -0.806   6.210  1.7018  1.3751 -0.7072
  137PC     H4B 6104   3.079  -0.810   6.346  0.0837 -1.1348 -0.7698
  137PC     H4C 6105   3.018  -0.722   6.202  1.2461 -0.4626  0.5967
  137PC     C35 6106   3.255  -0.675   6.433 -0.4111 -0.4276 -0.3381
  137PC     H5A 6107   3.309  -0.761   6.391  0.9867 -0.9098  2.2339
  137PC     H5B 6108   3.198  -0.706   6.520  0.2496 -0.2286  0.1676
  137PC     H5C 6109   3.330  -0.600   6.458 -0.0143 -1.3145  1.2384
  137PC     O33 6110   3.141  -0.279   6.169  0.5493 -0.5484 -0.0471
  137PC     O34 6111   2.908  -0.327   6.092  0.1767  0.3879 -0.2692
  137PC     O21 6112   3.055  -0.212   5.618  0.1739 -0.3229  0.0019
  137PC     C21 6113   3.019  -0.204   5.491  0.0206 -0.4801 -0.0213
  137PC     O22 6114   2.908  -0.224   5.446  0.3729  0.1661 -0.1177
  138OL     C12 6115   3.138  -0.162   5.408  0.3162 -1.2307  0.2188
  138OL     H2R 6116   3.222  -0.157   5.477  1.1253  0.8324 -0.8343
  138OL     H2S 6117   3.117  -0.059   5.379 -0.2436 -1.7667 -1.4466
  138OL     C13 6118   3.155  -0.250   5.289  0.5295 -0.2270 -0.0511
  138OL     H3R 6119   3.071  -0.268   5.221  0.8214 -0.6937 -0.3024
  138OL     H3S 6120   3.189  -0.349   5.320 -1.0470  0.0293  2.7729
  138OL     C14 6121   3.256  -0.190   5.192  0.1367  0.1593 -0.5576
  138OL     H4R 6122   3.267  -0.268   5.116 -2.0396 -0.4949 -0.2673
  138OL     H4S 6123   3.356  -0.174   5.234 -1.0319  0.1451  2.4423
  138OL     C15 6124   3.211  -0.068   5.111  0.6055 -0.1218 -0.2810
  138OL     H5R 6125   3.188   0.015   5.179 -2.2763  0.6028 -1.9718
  138OL     H5S 6126   3.113  -0.087   5.069 -0.6049  1.5224  1.5878
  138OL     C16 6127   3.307  -0.012   5.013  0.3332  0.2960  0.1479
  138OL     H6R 6128   3.382   0.049   5.063  1.2154  0.0977 -0.8980
  138OL     H6S 6129   3.237   0.047   4.953 -0.9208 -1.4062 -0.1243
  138OL     C17 6130   3.394  -0.111   4.924  0.2376 -0.6072 -0.0100
  138OL     H7R 6131   3.330  -0.182   4.872 -1.8463 -0.0638  1.6499
  138OL     H7S 6132   3.472  -0.158   4.985  1.9829  0.6560 -1.1504
  138OL     C18 6133   3.473  -0.033   4.819  0.4074 -0.4413  0.0904
  138OL     H8R 6134   3.526  -0.097   4.748 -3.7824 -2.5424 -1.4810
  138OL     H8S 6135   3.541   0.037   4.868 -0.4285  0.8600 -0.5611
  138OL     C19 6136   3.381   0.059   4.738  0.2693 -0.3711  0.0611
  138OL     H9R 6137   3.379   0.162   4.772  0.7317 -0.5975  0.7903
  138OL    C110 6138   3.315   0.024   4.628  0.3711  0.0226  0.1378
  138OL    H10R 6139   3.252   0.097   4.578 -0.0734  0.6863  1.6290
  138OL    C111 6140   3.307  -0.119   4.581  0.3542 -0.4654  0.9482
  138OL    H11R 6141   3.204  -0.156   4.586  0.0031  0.5961  1.9189
  138OL    H11S 6142   3.367  -0.182   4.647  0.6576  0.2325  1.3435
  138OL    C112 6143   3.346  -0.130   4.436  0.3961 -0.7136  0.2731
  138OL    H12R 6144   3.451  -0.107   4.414  0.2126  0.5171  0.6246
  138OL    H12S 6145   3.293  -0.059   4.372  0.1001 -0.7346  0.4967
  138OL    C113 6146   3.314  -0.268   4.381  0.9512  0.0979 -0.6619
  138OL    H13R 6147   3.205  -0.275   4.378  1.0290 -1.8519 -0.4080
  138OL    H13S 6148   3.357  -0.344   4.446 -1.5557  0.8108  2.0632
  138OL    C114 6149   3.361  -0.284   4.240 -0.3260 -0.0103 -0.0360
  138OL    H14R 6150   3.468  -0.265   4.237 -0.4491  0.6124 -0.7711
  138OL    H14S 6151   3.316  -0.205   4.179 -2.4841 -1.1016  0.0479
  138OL    C115 6152   3.332  -0.426   4.184  0.3919  0.6974 -0.1123
  138OL    H15R 6153   3.225  -0.439   4.201  0.7647  1.7533  3.9712
  138OL    H15S 6154   3.384  -0.510   4.230 -1.0954  0.3995  1.0588
  138OL    C116 6155   3.367  -0.447   4.037  0.1770  0.0402 -0.2334
  138OL    H16R 6156   3.342  -0.550   4.010  0.4316  0.7056 -3.3379
  138OL    H16S 6157   3.476  -0.445   4.030  0.1387 -0.9324 -1.4845
  138OL    C117 6158   3.288  -0.361   3.935 -0.5091 -0.2476 -0.1734
  138OL    H17R 6159   3.363  -0.301   3.883 -1.5970  0.2051 -1.2572
  138OL    H17S 6160   3.220  -0.297   3.990  0.0243 -0.4006  0.6927
  138OL    C118 6161   3.213  -0.448   3.840  0.9507  0.4803 -0.0424
  138OL    H18R 6162   3.135  -0.493   3.901  1.3422  1.5425  1.2830
  138OL    H18S 6163   3.275  -0.531   3.804  1.3872  0.2049  1.2819
  138OL    H18T 6164   3.159  -0.393   3.763  0.3873  0.4333  0.3170
  139PA    C116 6165   3.537   8.191   3.740 -0.0284  0.4768  0.2631
  139PA    H16R 6166   3.480   8.277   3.706 -3.1419 -0.9928  1.3755
  139PA    H16S 6167   3.495   8.100   3.698 -1.8508  0.9175  1.0514
  139PA    H16T 6168   3.640   8.211   3.709 -0.9410 -0.3080 -3.8386
  139PA    C115 6169   3.530   8.187   3.895 -0.1138 -0.3422  0.6862
  139PA    H15R 6170   3.577   8.276   3.937  1.4048 -1.2192  0.9371
  139PA    H15S 6171   3.429   8.187   3.938 -1.5939 -3.5539 -2.3117
  139PA    C114 6172   3.611   8.059   3.929 -0.3082  0.0866  0.2708
  139PA    H14R 6173   3.554   7.967   3.921 -1.2100  0.7344 -1.1742
  139PA    H14S 6174   3.684   8.061   3.848 -1.2154 -0.1341 -0.5648
  139PA    C113 6175   3.674   8.069   4.070  0.4456 -0.2598  0.1527
  139PA    H13R 6176   3.733   7.978   4.077 -0.2536 -0.6984  0.5602
  139PA    H13S 6177   3.753   8.143   4.082  0.5577 -0.1615 -1.0877
  139PA    C112 6178   3.565   8.079   4.182 -0.2116  0.0926  0.0631
  139PA    H12R 6179   3.529   8.182   4.188  0.9777  0.6297 -1.5013
  139PA    H12S 6180   3.471   8.032   4.154 -0.8743  1.6900 -0.4856
  139PA    C111 6181   3.621   8.031   4.317  0.1645  0.7693 -0.6419
  139PA    H11R 6182   3.654   7.929   4.298 -0.6884  0.2727  0.4105
  139PA    H11S 6183   3.707   8.090   4.349  0.5391 -1.1463  2.1982
  139PA    C110 6184   3.519   8.022   4.435  0.4335 -0.4144 -0.4817
  139PA    H10R 6185   3.477   8.121   4.453 -0.1204 -0.6869 -0.2631
  139PA    H10S 6186   3.432   7.959   4.414 -0.9116  0.9402  0.8600
  139PA     C19 6187   3.575   7.976   4.569 -0.3834 -0.9469 -0.0711
  139PA     H9R 6188   3.500   7.972   4.648  1.2263  1.6555  1.7385
  139PA     H9S 6189   3.606   7.872   4.573  0.6462 -0.6451  0.1415
  139PA     C18 6190   3.690   8.068   4.624 -0.0818  0.2203  0.2793
  139PA     H8R 6191   3.780   8.061   4.564  0.6494  0.9291  1.2541
  139PA     H8S 6192   3.646   8.166   4.600 -1.6235 -0.2340  1.1013
  139PA     C17 6193   3.719   8.048   4.776  0.0487  0.2082 -0.9393
  139PA     H7R 6194   3.810   8.105   4.799 -0.5913  1.0115 -0.3709
  139PA     H7S 6195   3.637   8.089   4.834  0.4156  0.0050 -0.2517
  139PA     C16 6196   3.753   7.901   4.816  0.0703  0.3575  1.1027
  139PA     H6R 6197   3.669   7.842   4.778  0.0556  0.8121  0.4008
  139PA     H6S 6198   3.836   7.860   4.759 -0.8351 -0.3628  0.2654
  139PA     C15 6199   3.767   7.878   4.971  0.4485 -0.6442 -0.8248
  139PA     H5R 6200   3.857   7.930   5.004 -0.4987  1.5102 -1.4936
  139PA     H5S 6201   3.682   7.920   5.027  0.8455 -2.6245  1.4335
  139PA     C14 6202   3.781   7.731   5.013 -0.7146 -0.2395  0.0697
  139PA     H4R 6203   3.687   7.680   4.990  0.0892 -3.0896  2.5267
  139PA     H4S 6204   3.858   7.694   4.944 -0.5249  0.9592 -0.3989
  139PA     C13 6205   3.818   7.707   5.159  0.3139  0.1272  0.6217
  139PA     H3R 6206   3.905   7.772   5.175 -0.0621  0.0414  3.7219
  139PA     H3S 6207   3.740   7.757   5.217 -0.8098 -0.4297 -0.3705
  139PA     C12 6208   3.825   7.556   5.202 -0.0482 -0.5483 -0.4759
  139PA     H2R 6209   3.723   7.518   5.209  0.7507 -2.5168  1.7469
  139PA     H2S 6210   3.891   7.495   5.140  0.8200  0.5613 -0.6831
  140PC     C11 6211   3.884   7.548   5.339 -0.4863 -0.7703  0.9477
  140PC     O12 6212   3.867   7.627   5.431  0.1621  0.1572 -0.0334
  140PC     O11 6213   3.969   7.446   5.349 -0.4121 -0.1871  0.3411
  140PC      C1 6214   4.020   7.418   5.484 -0.3978  0.3034  0.0189
  140PC      HR 6215   4.107   7.353   5.472 -1.0012 -0.7799  1.3034
  140PC      HS 6216   4.062   7.512   5.521  0.5818 -0.2764  0.4221
  140PC      C2 6217   3.914   7.365   5.576  0.3904 -0.5542 -0.8327
  140PC      HX 6218   3.843   7.445   5.597  0.5162 -0.9451  1.3782
  140PC      C3 6219   3.974   7.322   5.714  0.8347 -0.3574  0.3203
  140PC      HA 6220   3.896   7.255   5.750  0.6057 -1.5144 -2.1441
  140PC      HB 6221   4.070   7.273   5.695  1.1892 -0.2553  1.7509
  140PC     O31 6222   3.997   7.426   5.811 -0.1389  0.5172  0.1540
  140PC     P31 6223   3.877   7.468   5.922 -0.2093  0.2415  0.4294
  140PC     O32 6224   3.775   7.542   5.828  0.0725  0.4179  0.6919
  140PC     C31 6225   3.809   7.664   5.755  0.5487  1.0771  0.1556
  140PC     H1A 6226   3.917   7.680   5.754  0.8835 -0.8389 -2.1228
  140PC     H1B 6227   3.778   7.647   5.651 -0.2158 -0.3866  0.5927
  140PC     C32 6228   3.725   7.772   5.820 -0.1382  0.8048  0.1518
  140PC     H2A 6229   3.619   7.746   5.822 -0.1682  0.8339 -0.7123
  140PC     H2B 6230   3.755   7.791   5.923 -1.1131  0.3638  0.5347
  140PC     N31 6231   3.732   7.915   5.760  0.6381 -0.1428  0.3216
  140PC     C33 6232   3.689   7.916   5.618 -0.2197  0.3196 -0.4344
  140PC     H3A 6233   3.679   8.017   5.576 -1.9219  0.8491  1.0928
  140PC     H3B 6234   3.768   7.867   5.561  0.0405  0.2638 -0.0327
  140PC     H3C 6235   3.586   7.883   5.602 -1.6419  4.5301 -1.2990
  140PC     C34 6236   3.647   8.003   5.842  0.7353 -0.1137 -0.3789
  140PC     H4A 6237   3.624   8.098   5.793  1.2350  1.6858  2.6109
  140PC     H4B 6238   3.555   7.944   5.842 -0.2128  1.3130 -0.9521
  140PC     H4C 6239   3.694   8.018   5.939 -0.9425  1.0244  0.3074
  140PC     C35 6240   3.866   7.976   5.772 -0.2680 -0.2750  0.3181
  140PC     H5A 6241   3.936   7.897   5.745  0.1977 -0.4112  1.8685
  140PC     H5B 6242   3.900   8.011   5.869  3.8168  0.4012 -1.1573
  140PC     H5C 6243   3.869   8.063   5.706  0.3276  1.0897  2.0699
  140PC     O33 6244   3.813   7.344   5.967  0.2008 -0.0837  0.1438
  140PC     O34 6245   3.935   7.557   6.026  0.1231 -1.0287  0.0306
  140PC     O21 6246   3.845   7.245   5.526 -0.0907  0.4626  0.2387
  140PC     C21 6247   3.727   7.248   5.467 -0.4042 -0.2878  0.1638
  140PC     O22 6248   3.665   7.352   5.464  0.5121 -0.2001 -0.6107
  141OL     C12 6249   3.683   7.108   5.413  0.0169 -0.1136 -0.3035
  141OL     H2R 6250   3.669   7.035   5.492  2.1055 -0.0220  0.2133
  141OL     H2S 6251   3.764   7.057   5.360  0.0221 -2.5491  1.8789
  141OL     C13 6252   3.557   7.126   5.326  0.4428  0.0545  0.1184
  141OL     H3R 6253   3.583   7.199   5.250  0.4802  1.6106  1.5611
  141OL     H3S 6254   3.489   7.176   5.396  1.3642  0.1559  0.9760
  141OL     C14 6255   3.487   6.991   5.276  0.0984 -0.1706  0.3204
  141OL     H4R 6256   3.398   7.024   5.221  1.8966  1.1594 -1.9839
  141OL     H4S 6257   3.451   6.930   5.359 -2.2350  0.8127  0.1310
  141OL     C15 6258   3.567   6.917   5.167  0.3221  0.4428 -0.2723
  141OL     H5R 6259   3.500   6.839   5.128  0.3982  0.6460 -0.8206
  141OL     H5S 6260   3.657   6.881   5.218  0.3087  2.3584  1.2144
  141OL     C16 6261   3.609   7.002   5.047 -0.4444 -0.3649 -0.1358
  141OL     H6R 6262   3.668   7.082   5.092 -0.9826  0.3123 -0.6086
  141OL     H6S 6263   3.522   7.055   5.007 -1.8684 -1.5564  1.2452
  141OL     C17 6264   3.696   6.929   4.944 -0.0805 -0.0961 -0.3038
  141OL     H7R 6265   3.637   6.843   4.910  0.1011 -0.7442  0.9862
  141OL     H7S 6266   3.787   6.888   4.988 -0.1447 -1.8331 -1.6762
  141OL     C18 6267   3.728   7.011   4.817  0.1934  0.1058 -0.0967
  141OL     H8R 6268   3.643   7.048   4.759  0.5006  1.5060  0.3080
  141OL     H8S 6269   3.777   6.941   4.750 -0.2764 -0.7575  0.4381
  141OL     C19 6270   3.818   7.128   4.852 -0.0523 -0.1829  0.2855
  141OL     H9R 6271   3.771   7.212   4.902  0.0205  1.0047 -1.5758
  141OL    C110 6272   3.944   7.148   4.816  0.5088 -0.0041 -0.4475
  141OL    H10R 6273   3.992   7.240   4.849 -1.6404  0.3667  1.9123
  141OL    C111 6274   4.031   7.038   4.760 -0.0892  0.5843  0.1496
  141OL    H11R 6275   3.981   6.941   4.754 -0.0547  0.3520  2.5565
  141OL    H11S 6276   4.111   7.028   4.835 -0.3011 -0.4522  0.2520
  141OL    C112 6277   4.082   7.069   4.624  0.2364  0.6040 -0.3061
  141OL    H12R 6278   4.152   6.994   4.586  0.3619  0.3860  0.3358
  141OL    H12S 6279   4.141   7.159   4.642  0.1355  0.7899 -0.8769
  141OL    C113 6280   3.969   7.102   4.519  0.5571  0.8471 -0.1824
  141OL    H13R 6281   3.920   7.198   4.535  2.7900  1.9189  0.7090
  141OL    H13S 6282   3.899   7.018   4.523 -1.8880  2.8499  2.9155
  141OL    C114 6283   4.033   7.097   4.379 -0.2133 -0.7030  0.1744
  141OL    H14R 6284   3.956   7.080   4.303  1.0464 -2.3256 -0.7921
  141OL    H14S 6285   4.088   7.003   4.373  0.2513 -0.7031  3.0426
  141OL    C115 6286   4.111   7.217   4.336 -0.6443 -0.2616 -0.1033
  141OL    H15R 6287   4.184   7.236   4.415 -1.1640 -1.1833  0.6176
  141OL    H15S 6288   4.044   7.303   4.338 -1.3632 -0.8185  1.1146
  141OL    C116 6289   4.191   7.220   4.203  0.5008  0.6922 -0.4321
  141OL    H16R 6290   4.242   7.315   4.187 -0.2410  1.3855  1.0624
  141OL    H16S 6291   4.116   7.200   4.125  0.5715  1.0311 -0.5912
  141OL    C117 6292   4.297   7.106   4.204  0.8514 -0.1433 -0.1358
  141OL    H17R 6293   4.256   7.017   4.251 -1.4079  1.4230  1.0390
  141OL    H17S 6294   4.381   7.130   4.269  0.7913 -2.2084  0.7729
  141OL    C118 6295   4.346   7.066   4.065 -0.2143  0.2895  0.1720
  141OL    H18R 6296   4.425   6.993   4.082  0.4098  1.0899  0.8308
  141OL    H18S 6297   4.403   7.148   4.021  2.2193 -0.3585  1.8631
  141OL    H18T 6298   4.267   7.027   4.000  1.0376 -2.9769  0.4399
  142PA    C116 6299   7.442   5.448   3.826 -0.4206  0.3067 -0.0252
  142PA    H16R 6300   7.421   5.385   3.740 -1.6175 -0.1965  0.6168
  142PA    H16S 6301   7.541   5.428   3.868 -0.0197 -0.9193 -1.4592
  142PA    H16T 6302   7.448   5.545   3.775  0.5074  1.1610  1.6323
  142PA    C115 6303   7.326   5.447   3.929  0.4417 -0.4325  0.5682
  142PA    H15R 6304   7.326   5.522   4.008 -0.0700  0.2484 -0.0594
  142PA    H15S 6305   7.236   5.474   3.872  1.8088  3.2441 -0.1423
  142PA    C114 6306   7.321   5.305   3.992 -0.4872  0.7917 -0.7426
  142PA    H14R 6307   7.218   5.288   4.022 -1.4275  2.1064 -3.0239
  142PA    H14S 6308   7.342   5.219   3.928  1.7926  1.3060 -0.7958
  142PA    C113 6309   7.418   5.272   4.115 -0.0893  0.5920 -0.6650
  142PA    H13R 6310   7.523   5.288   4.092 -0.6108  3.5840 -1.3005
  142PA    H13S 6311   7.403   5.348   4.191 -0.2040  0.4514 -0.5467
  142PA    C112 6312   7.390   5.133   4.186 -0.4980 -0.1297 -0.0143
  142PA    H12R 6313   7.282   5.123   4.193 -0.3188 -1.6373  1.2074
  142PA    H12S 6314   7.437   5.056   4.125 -0.6549 -0.2853  0.0607
  142PA    C111 6315   7.469   5.140   4.324 -0.5475  0.2126 -0.0285
  142PA    H11R 6316   7.479   5.041   4.370 -0.2367 -0.4334 -1.4305
  142PA    H11S 6317   7.573   5.169   4.312  0.0709 -0.9773  1.9846
  142PA    C110 6318   7.404   5.230   4.427  0.6829  0.0051  0.5019
  142PA    H10R 6319   7.386   5.332   4.392  0.4026 -0.7290 -1.5879
  142PA    H10S 6320   7.309   5.179   4.442  0.2129  0.0629 -1.8700
  142PA     C19 6321   7.493   5.241   4.548  0.2063 -0.3188 -0.2439
  142PA     H9R 6322   7.516   5.144   4.592  3.9218  0.0272 -1.0304
  142PA     H9S 6323   7.588   5.287   4.519 -0.1057 -0.1828 -1.0737
  142PA     C18 6324   7.420   5.329   4.657  0.0468  0.3480  0.7181
  142PA     H8R 6325   7.391   5.423   4.610  1.0899  0.4803  0.3215
  142PA     H8S 6326   7.332   5.270   4.683 -0.6791  0.8337 -0.5568
  142PA     C17 6327   7.504   5.344   4.789  0.0026 -0.1686 -0.1769
  142PA     H7R 6328   7.506   5.247   4.838  1.4015 -1.3044 -2.3418
  142PA     H7S 6329   7.603   5.373   4.755 -0.0299  0.4695  0.2672
  142PA     C16 6330   7.444   5.443   4.888  0.0442  0.3831  0.3570
  142PA     H6R 6331   7.458   5.542   4.844 -0.2796  0.7987  1.1669
  142PA     H6S 6332   7.337   5.425   4.900  0.1589 -1.5500 -0.9849
  142PA     C15 6333   7.515   5.438   5.026 -0.0305  0.0603  0.1630
  142PA     H5R 6334   7.482   5.351   5.084  0.8397 -0.5794 -0.2817
  142PA     H5S 6335   7.622   5.422   5.014  0.1800  2.3711 -1.6122
  142PA     C14 6336   7.473   5.565   5.105  0.7162  0.1544 -0.5448
  142PA     H4R 6337   7.498   5.655   5.049  1.0410 -0.0351 -0.6995
  142PA     H4S 6338   7.364   5.560   5.117  0.8135 -1.3601 -0.0492
  142PA     C13 6339   7.531   5.587   5.246  0.0506 -0.3942  0.5175
  142PA     H3R 6340   7.494   5.507   5.310 -1.2495  0.7729  1.2675
  142PA     H3S 6341   7.640   5.574   5.240 -0.0069 -2.0365  2.1840
  142PA     C12 6342   7.489   5.726   5.298  0.1433  0.5036 -1.2828
  142PA     H2R 6343   7.532   5.803   5.234  1.0024 -0.4130 -1.8304
  142PA     H2S 6344   7.379   5.729   5.301  0.1457  0.2394  0.1851
  143PC     C11 6345   7.545   5.748   5.438  0.3015 -0.0271  1.1118
  143PC     O12 6346   7.489   5.724   5.546  0.0832 -0.3354 -0.2525
  143PC     O11 6347   7.671   5.795   5.438 -1.0330  0.0258 -1.0337
  143PC      C1 6348   7.730   5.836   5.568  0.3196 -0.4807  0.1440
  143PC      HR 6349   7.830   5.874   5.548  0.5666 -2.3098 -2.4426
  143PC      HS 6350   7.669   5.916   5.613 -0.2172 -0.3923 -0.7310
  143PC      C2 6351   7.761   5.721   5.662  0.0968  0.1208 -0.8172
  143PC      HX 6352   7.670   5.674   5.700  1.4297 -1.0484  1.0837
  143PC      C3 6353   7.831   5.760   5.786 -0.1833 -0.2854  0.0526
  143PC      HA 6354   7.826   5.676   5.856 -1.1911 -0.2979 -0.0197
  143PC      HB 6355   7.932   5.781   5.750 -0.3256 -0.7754 -0.6666
  143PC     O31 6356   7.773   5.880   5.848 -0.0408 -0.3471  0.1805
  143PC     P31 6357   7.670   5.869   5.963  0.0696  0.1397 -0.4219
  143PC     O32 6358   7.754   5.881   6.100 -0.2095 -0.2192 -0.1334
  143PC     C31 6359   7.797   5.770   6.178 -0.1581 -0.0008  0.6852
  143PC     H1A 6360   7.722   5.690   6.173 -0.4630  0.0736  2.8999
  143PC     H1B 6361   7.884   5.728   6.129  0.0105 -1.5516  2.2083
  143PC     C32 6362   7.849   5.813   6.318 -0.2987 -0.2251  0.4942
  143PC     H2A 6363   7.888   5.724   6.369 -0.4591 -1.7329 -1.8545
  143PC     H2B 6364   7.930   5.885   6.306  3.2833 -3.7989  0.9729
  143PC     N31 6365   7.750   5.865   6.425 -0.3046 -0.0854  0.0817
  143PC     C33 6366   7.658   5.749   6.453  0.6141 -0.0296  0.2522
  143PC     H3A 6367   7.599   5.768   6.543  2.1576 -0.7675  1.4842
  143PC     H3B 6368   7.591   5.734   6.369 -0.7945 -1.9321  1.6247
  143PC     H3C 6369   7.725   5.664   6.467  0.4480  0.0795  1.9155
  143PC     C34 6370   7.821   5.890   6.549 -0.2178 -0.3048 -0.3051
  143PC     H4A 6371   7.840   5.795   6.599  1.3982  0.2577  0.2118
  143PC     H4B 6372   7.909   5.948   6.524 -0.2249  0.7565  1.9446
  143PC     H4C 6373   7.762   5.948   6.620  0.4882  0.5409 -0.3927
  143PC     C35 6374   7.667   5.975   6.378 -0.3975  0.3123  0.1065
  143PC     H5A 6375   7.600   6.006   6.458  2.0549  0.9582  1.9962
  143PC     H5B 6376   7.618   5.936   6.288 -2.2991 -1.4789  1.8171
  143PC     H5C 6377   7.735   6.056   6.351 -0.7140  0.0295 -1.7247
  143PC     O33 6378   7.596   6.001   5.971  0.1586 -0.1981  0.3969
  143PC     O34 6379   7.594   5.741   5.966 -0.3416 -0.0533 -0.1490
  143PC     O21 6380   7.849   5.625   5.589 -0.8108  0.5768 -0.0138
  143PC     C21 6381   7.787   5.526   5.525  0.3328 -0.1075 -0.2910
  143PC     O22 6382   7.670   5.520   5.507 -0.0959  0.8430  0.1595
  144OL     C12 6383   7.871   5.409   5.476 -0.7280 -0.0064 -1.2721
  144OL     H2R 6384   7.915   5.359   5.563  1.2050  0.7686 -1.7610
  144OL     H2S 6385   7.962   5.441   5.426 -0.2250 -0.5713 -0.7351
  144OL     C13 6386   7.800   5.311   5.382 -0.6089  0.0988 -0.7273
  144OL     H3R 6387   7.770   5.366   5.293  0.6117  2.7159  0.3728
  144OL     H3S 6388   7.707   5.281   5.430  0.7519 -1.1262  1.3357
  144OL     C14 6389   7.884   5.184   5.355 -0.3693 -0.1026 -0.9034
  144OL     H4R 6390   7.887   5.125   5.447 -3.9002  0.3497 -0.3439
  144OL     H4S 6391   7.985   5.208   5.323 -0.1412 -0.4999 -0.4879
  144OL     C15 6392   7.833   5.098   5.242 -0.2017  0.6483  0.7847
  144OL     H5R 6393   7.725   5.078   5.248 -0.1306  0.4338  1.4523
  144OL     H5S 6394   7.888   5.004   5.246 -1.0018  0.0952 -0.5643
  144OL     C16 6395   7.843   5.175   5.112 -0.2254 -1.1925  0.5598
  144OL     H6R 6396   7.940   5.218   5.087 -0.5407 -0.6236  0.2925
  144OL     H6S 6397   7.772   5.258   5.122  1.7433  1.1737 -2.7987
  144OL     C17 6398   7.784   5.105   4.986  0.3981  0.5652  0.0385
  144OL     H7R 6399   7.676   5.098   4.998  0.6439  0.5443  3.3153
  144OL     H7S 6400   7.813   5.000   4.992 -2.1534 -0.2607 -0.6126
  144OL     C18 6401   7.821   5.177   4.856 -0.9419  0.1283 -0.1451
  144OL     H8R 6402   7.929   5.184   4.842 -0.9875  0.3179 -0.3952
  144OL     H8S 6403   7.781   5.278   4.863  1.2669  0.9683  1.2395
  144OL     C19 6404   7.763   5.099   4.735 -0.0221  0.2150 -0.3610
  144OL     H9R 6405   7.662   5.064   4.754  0.0728  0.3084  0.3330
  144OL    C110 6406   7.820   5.069   4.622 -0.1048 -0.0539 -0.5632
  144OL    H10R 6407   7.761   5.007   4.555  1.9891 -1.5733 -1.1287
  144OL    C111 6408   7.955   5.108   4.579  0.2414 -0.2134 -0.3947
  144OL    H11R 6409   8.028   5.089   4.658  1.8023  1.4813 -1.3389
  144OL    H11S 6410   7.960   5.213   4.550 -1.0122 -0.1700 -0.5267
  144OL    C112 6411   7.993   5.028   4.450  0.2077  0.1444  0.2021
  144OL    H12R 6412   8.036   4.931   4.474  0.8727  0.6255  1.0237
  144OL    H12S 6413   8.079   5.076   4.403  0.7572 -2.8057 -2.0382
  144OL    C113 6414   7.883   5.026   4.338 -0.8734  0.3933  0.2365
  144OL    H13R 6415   7.838   5.126   4.333 -0.7330  0.4556  0.2221
  144OL    H13S 6416   7.802   4.955   4.358  0.5224 -1.4822 -0.4778
  144OL    C114 6417   7.942   4.995   4.205 -0.0241  0.0855  0.4625
  144OL    H14R 6418   7.979   4.892   4.208 -2.4243 -0.8343  2.7520
  144OL    H14S 6419   8.024   5.058   4.172 -0.6063  0.6550  0.0668
  144OL    C115 6420   7.836   4.996   4.090  0.1214  0.4232 -0.3501
  144OL    H15R 6421   7.783   5.091   4.090  1.3947  1.1614  0.4034
  144OL    H15S 6422   7.774   4.907   4.103  1.7650 -0.6535  0.5780
  144OL    C116 6423   7.898   4.986   3.951  0.4473  0.3864 -0.8216
  144OL    H16R 6424   7.821   4.976   3.875  1.6418  0.6001 -2.1093
  144OL    H16S 6425   7.957   4.895   3.956  0.0024 -0.0140 -2.4270
  144OL    C117 6426   7.995   5.103   3.918  0.2318  0.0738  0.5841
  144OL    H17R 6427   8.091   5.086   3.968 -0.1952 -1.4777  0.9291
  144OL    H17S 6428   7.948   5.195   3.953 -3.5658 -1.4704  0.0616
  144OL    C118 6429   8.018   5.113   3.767 -0.3679  0.7089 -0.1161
  144OL    H18R 6430   7.936   5.162   3.715 -1.6564 -1.6594 -0.4625
  144OL    H18S 6431   8.019   5.015   3.719 -2.9918  0.3890  0.3425
  144OL    H18T 6432   8.113   5.164   3.749  1.1199 -1.4851  1.0614
  145PA    C116 6433   6.506   4.848   3.998  0.2121 -0.1140 -0.6924
  145PA    H16R 6434   6.493   4.951   3.964 -1.5839  0.4326  1.4095
  145PA    H16S 6435   6.506   4.829   4.105 -0.2140 -0.6171 -0.7807
  145PA    H16T 6436   6.417   4.792   3.969  0.4599 -2.4485  2.5080
  145PA    C115 6437   6.635   4.789   3.942 -0.0996 -0.2722  0.3793
  145PA    H15R 6438   6.625   4.681   3.943 -2.9319 -0.1097 -0.8824
  145PA    H15S 6439   6.626   4.812   3.835  0.1458  0.4704  0.5101
  145PA    C114 6440   6.771   4.837   3.997 -0.3479 -0.6880  0.2473
  145PA    H14R 6441   6.763   4.831   4.106 -1.7946 -1.1234  0.1444
  145PA    H14S 6442   6.850   4.768   3.970  1.8507  1.3187  1.1536
  145PA    C113 6443   6.817   4.971   3.948  0.1527 -0.0176  0.1079
  145PA    H13R 6444   6.791   4.978   3.843 -1.4636 -2.2276  0.2984
  145PA    H13S 6445   6.750   5.040   4.000 -0.8266  0.1418 -1.3251
  145PA    C112 6446   6.967   4.995   3.976 -0.3314 -0.1687  0.4253
  145PA    H12R 6447   7.029   4.924   3.921  0.1579  1.2947 -0.9870
  145PA    H12S 6448   6.990   5.095   3.939  1.6895 -1.0733 -0.9661
  145PA    C111 6449   7.017   4.981   4.124  0.1041 -0.6887 -0.3012
  145PA    H11R 6450   7.009   4.877   4.156 -0.3197 -0.7281 -0.5175
  145PA    H11S 6451   7.122   5.007   4.135 -0.1540  0.0049  0.5712
  145PA    C110 6452   6.930   5.064   4.213 -0.0272 -0.4464  0.6260
  145PA    H10R 6453   6.936   5.170   4.185 -1.4120 -0.5563 -0.1591
  145PA    H10S 6454   6.827   5.029   4.207 -0.7008  1.5651 -1.0315
  145PA     C19 6455   6.999   5.056   4.353 -0.0852 -0.0556 -0.1147
  145PA     H9R 6456   7.035   4.956   4.376 -1.6269 -0.7901 -0.7241
  145PA     H9S 6457   7.086   5.121   4.346 -0.1910  0.0312 -0.6575
  145PA     C18 6458   6.926   5.114   4.475  0.4482 -1.0019 -0.5531
  145PA     H8R 6459   6.906   5.216   4.444 -1.0595 -0.9558  0.4466
  145PA     H8S 6460   6.828   5.071   4.497  0.3880  0.5512  2.9365
  145PA     C17 6461   7.016   5.114   4.602  0.0946 -0.4008 -0.8374
  145PA     H7R 6462   7.034   5.016   4.648  2.3925 -0.1759 -1.1028
  145PA     H7S 6463   7.112   5.156   4.569 -0.2570 -0.2546 -1.7107
  145PA     C16 6464   6.952   5.201   4.715 -0.6538 -0.3379  0.2367
  145PA     H6R 6465   6.939   5.298   4.666  1.1217 -0.2864 -0.1864
  145PA     H6S 6466   6.858   5.156   4.748 -2.3764  1.5101 -1.7627
  145PA     C15 6467   7.052   5.226   4.827  0.0436  0.5355 -0.3273
  145PA     H5R 6468   7.080   5.125   4.858 -2.2669 -0.0950 -0.0366
  145PA     H5S 6469   7.139   5.282   4.794 -2.2319  3.9783 -0.9652
  145PA     C14 6470   6.985   5.320   4.934  0.5139 -0.1870  0.4211
  145PA     H4R 6471   6.954   5.412   4.883 -0.9466  1.4839  3.9217
  145PA     H4S 6472   6.897   5.271   4.977  1.5084 -2.6764 -0.2171
  145PA     C13 6473   7.072   5.355   5.056  0.4489  0.0365  0.2130
  145PA     H3R 6474   7.159   5.407   5.016 -1.0240  2.0447 -0.5518
  145PA     H3S 6475   7.030   5.432   5.122 -1.0738  1.1140 -1.8914
  145PA     C12 6476   7.109   5.233   5.131  0.4827 -0.0097  0.0332
  145PA     H2R 6477   7.027   5.191   5.191  2.1447  1.7344  3.8905
  145PA     H2S 6478   7.142   5.150   5.070  2.0193  1.3605 -1.0868
  146PC     C11 6479   7.212   5.269   5.244 -0.0168 -0.1701  0.0636
  146PC     O12 6480   7.229   5.381   5.272  0.3051  0.1252 -0.8029
  146PC     O11 6481   7.268   5.163   5.300 -0.1462 -0.2460  0.2282
  146PC      C1 6482   7.356   5.174   5.412 -0.4796  0.1703 -0.3950
  146PC      HR 6483   7.448   5.223   5.379 -0.1878 -0.3145 -0.3064
  146PC      HS 6484   7.297   5.222   5.490  0.7332 -1.0744  1.3578
  146PC      C2 6485   7.404   5.033   5.460  0.3858 -0.4417 -0.3471
  146PC      HX 6486   7.334   4.959   5.497  0.9757 -0.5280  0.6389
  146PC      C3 6487   7.501   5.067   5.578  0.1842  0.2270 -0.2992
  146PC      HA 6488   7.544   4.972   5.610 -2.6653 -1.6458 -1.6683
  146PC      HB 6489   7.583   5.126   5.536 -0.4406 -1.1866 -3.8022
  146PC     O31 6490   7.436   5.130   5.700 -0.0727  0.9350 -0.6813
  146PC     P31 6491   7.431   5.055   5.844 -0.6478  0.0172 -0.0284
  146PC     O32 6492   7.294   4.979   5.829  0.7692  0.2449 -0.7361
  146PC     C31 6493   7.166   5.058   5.818 -0.3653 -0.1160 -0.0388
  146PC     H1A 6494   7.142   5.103   5.915 -0.5961  1.8774 -0.9634
  146PC     H1B 6495   7.180   5.143   5.750  1.5799  0.2078  0.7211
  146PC     C32 6496   7.067   4.965   5.758 -0.6909 -0.1946 -0.0762
  146PC     H2A 6497   6.979   5.014   5.715 -0.5605  0.2393  0.1433
  146PC     H2B 6498   7.122   4.913   5.680  0.0151  0.5487 -0.0970
  146PC     N31 6499   7.007   4.859   5.851 -0.4454 -0.1094 -0.4072
  146PC     C33 6500   6.931   4.773   5.758  0.3874 -0.4376 -1.0128
  146PC     H3A 6501   6.876   4.832   5.685 -0.5852 -0.9023 -0.6755
  146PC     H3B 6502   6.998   4.700   5.713 -1.2023 -1.8305 -1.1954
  146PC     H3C 6503   6.858   4.714   5.813 -0.0240 -1.0733 -2.2056
  146PC     C34 6504   7.106   4.777   5.919 -0.3670 -0.1204 -0.2624
  146PC     H4A 6505   7.169   4.743   5.837  0.1242 -1.7137  0.7173
  146PC     H4B 6506   7.165   4.837   5.989  1.3899 -1.1976 -0.7503
  146PC     H4C 6507   7.063   4.691   5.971  1.1724 -0.5757  0.3265
  146PC     C35 6508   6.930   4.916   5.965 -0.2442  0.2311  0.2507
  146PC     H5A 6509   7.000   4.984   6.014  0.6561  0.4262 -1.2634
  146PC     H5B 6510   6.880   4.841   6.027 -1.8630  0.4683 -0.7122
  146PC     H5C 6511   6.847   4.974   5.925 -0.5369 -1.3753 -1.6126
  146PC     O33 6512   7.543   4.957   5.853 -0.4105  0.2965 -0.3248
  146PC     O34 6513   7.429   5.158   5.955  0.0562 -0.2045 -0.3788
  146PC     O21 6514   7.489   4.968   5.364  0.3414  0.5715  0.0171
  146PC     C21 6515   7.433   4.877   5.287  0.4418  0.1401  0.0718
  146PC     O22 6516   7.317   4.861   5.266  0.6397  0.1958 -0.0845
  147OL     C12 6517   7.533   4.799   5.206  0.3521  0.0116  0.0803
  147OL     H2R 6518   7.562   4.721   5.277 -1.2843  0.8975  1.8275
  147OL     H2S 6519   7.624   4.859   5.200  0.0206  0.4836 -0.2468
  147OL     C13 6520   7.484   4.745   5.069  0.5663 -0.0807 -0.8975
  147OL     H3R 6521   7.379   4.715   5.068  0.1093  1.2713  1.0680
  147OL     H3S 6522   7.538   4.651   5.051 -0.6803 -1.2116  0.9750
  147OL     C14 6523   7.504   4.841   4.954 -0.6506  0.4409  1.1406
  147OL     H4R 6524   7.607   4.870   4.932 -0.2545 -1.0031  0.9730
  147OL     H4S 6525   7.443   4.927   4.984  0.4161  1.8191 -0.4554
  147OL     C15 6526   7.450   4.786   4.817  0.2686  0.7594 -0.4191
  147OL     H5R 6527   7.344   4.762   4.833  0.8669 -0.5318  2.3083
  147OL     H5S 6528   7.506   4.695   4.798  1.9475  1.4592  0.9112
  147OL     C16 6529   7.464   4.890   4.709 -0.6957  0.1629  0.6902
  147OL     H6R 6530   7.572   4.900   4.693 -0.5311  0.4487  1.9160
  147OL     H6S 6531   7.424   4.990   4.728  0.4791  0.9552 -0.7659
  147OL     C17 6532   7.387   4.856   4.581  0.4081  0.3956  0.3203
  147OL     H7R 6533   7.370   4.949   4.527  0.5068  0.9055  1.1483
  147OL     H7S 6534   7.286   4.827   4.612  0.2932  0.7206  0.2537
  147OL     C18 6535   7.436   4.740   4.498  0.0927  0.3981  0.0651
  147OL     H8R 6536   7.365   4.722   4.417  0.2799  0.2448 -0.0675
  147OL     H8S 6537   7.444   4.653   4.564  1.8836  0.6517  0.2484
  147OL     C19 6538   7.578   4.752   4.441 -0.6412  0.0690  0.6021
  147OL     H9R 6539   7.666   4.746   4.505  1.5087  0.1343 -2.1573
  147OL    C110 6540   7.600   4.752   4.309  0.4858  0.2113 -0.0109
  147OL    H10R 6541   7.703   4.753   4.275  0.3598 -2.1682 -0.6428
  147OL    C111 6542   7.496   4.787   4.202 -0.2620  0.2672 -0.0579
  147OL    H11R 6543   7.545   4.865   4.144  0.9815 -0.5845 -0.2016
  147OL    H11S 6544   7.414   4.846   4.242  0.9152  2.2389 -0.4090
  147OL    C112 6545   7.449   4.682   4.109  0.9184 -0.4104 -0.2960
  147OL    H12R 6546   7.397   4.605   4.166  1.4995 -0.1974  0.5344
  147OL    H12S 6547   7.531   4.630   4.059  0.8084 -1.1127  0.2475
  147OL    C113 6548   7.350   4.736   4.004  0.1058 -0.6607 -0.5133
  147OL    H13R 6549   7.267   4.781   4.059 -0.2801 -2.3827  0.4159
  147OL    H13S 6550   7.299   4.650   3.959  0.3449 -0.1422 -1.8237
  147OL    C114 6551   7.406   4.827   3.890 -0.3880 -0.0938  0.5515
  147OL    H14R 6552   7.504   4.796   3.851 -0.0298  1.8715 -0.2526
  147OL    H14S 6553   7.411   4.927   3.934  0.1671 -1.1594  3.0848
  147OL    C115 6554   7.308   4.826   3.775 -0.5861 -0.7144  0.3533
  147OL    H15R 6555   7.213   4.863   3.814 -0.7989 -2.9832  2.2235
  147OL    H15S 6556   7.295   4.721   3.750  0.6339 -0.8053  0.0191
  147OL    C116 6557   7.351   4.899   3.646  0.8796 -0.1908 -0.0106
  147OL    H16R 6558   7.449   4.873   3.606  1.0313  2.2700 -1.4963
  147OL    H16S 6559   7.362   5.007   3.664  0.2969 -0.0859 -0.2548
  147OL    C117 6560   7.246   4.878   3.537  0.5850 -0.9317 -0.1323
  147OL    H17R 6561   7.246   4.772   3.514  2.2214 -1.1027  0.5094
  147OL    H17S 6562   7.259   4.939   3.447 -2.1786 -0.4777 -0.3223
  147OL    C118 6563   7.107   4.920   3.577  0.6205 -0.5764 -0.3681
  147OL    H18R 6564   7.111   5.012   3.636 -2.2773 -1.2311  1.0412
  147OL    H18S 6565   7.068   4.837   3.637 -1.0378 -0.1952 -0.8871
  147OL    H18T 6566   7.037   4.939   3.496 -0.5616  0.6884  0.8926
  148PA    C116 6567   4.196   2.886   4.212  0.4523 -0.1686 -0.2617
  148PA    H16R 6568   4.096   2.842   4.214 -0.4012  1.6913  0.3862
  148PA    H16S 6569   4.245   2.872   4.309 -2.4492  0.1934  1.3498
  148PA    H16T 6570   4.244   2.835   4.128 -0.5753 -0.4737 -0.6814
  148PA    C115 6571   4.183   3.035   4.174 -0.2270 -0.7685 -0.0192
  148PA    H15R 6572   4.278   3.083   4.150 -1.1457  2.0326  1.5068
  148PA    H15S 6573   4.128   3.043   4.079  0.4410  1.0513 -0.2917
  148PA    C114 6574   4.122   3.124   4.292  0.3487  0.4051  0.0327
  148PA    H14R 6575   4.087   3.221   4.255  0.5316 -0.1517 -1.7156
  148PA    H14S 6576   4.039   3.061   4.326  0.5920 -1.7549 -2.8720
  148PA    C113 6577   4.226   3.152   4.402  0.0936  0.1239 -0.0309
  148PA    H13R 6578   4.269   3.059   4.440  1.5205  0.6312 -0.3569
  148PA    H13S 6579   4.310   3.204   4.355 -0.0237  1.4147  1.1497
  148PA    C112 6580   4.167   3.229   4.523 -0.3366  0.7156  0.5073
  148PA    H12R 6581   4.131   3.328   4.493  1.3436  0.3388 -3.2683
  148PA    H12S 6582   4.077   3.174   4.551 -0.1025 -0.4522 -0.9657
  148PA    C111 6583   4.262   3.235   4.645 -0.1174 -0.2676 -0.0872
  148PA    H11R 6584   4.276   3.133   4.682 -0.1601  0.2826  1.5052
  148PA    H11S 6585   4.362   3.269   4.618  0.0112  0.3349  1.0769
  148PA    C110 6586   4.217   3.315   4.763  0.0889  0.3482 -0.1773
  148PA    H10R 6587   4.158   3.398   4.722  0.7306  1.0555  0.2911
  148PA    H10S 6588   4.151   3.258   4.828  2.6374 -1.8967  0.5745
  148PA     C19 6589   4.343   3.357   4.847  0.0263 -0.4765  0.4120
  148PA     H9R 6590   4.285   3.400   4.929 -2.3516 -0.5623 -1.1090
  148PA     H9S 6591   4.397   3.272   4.888  0.7817  0.3942  1.2534
  148PA     C18 6592   4.435   3.473   4.788  0.4973  0.4322 -0.0132
  148PA     H8R 6593   4.499   3.502   4.872  0.8523 -2.4129  0.8155
  148PA     H8S 6594   4.501   3.438   4.708  1.6473 -0.4605  1.2758
  148PA     C17 6595   4.357   3.603   4.745  0.4123 -0.6304 -0.4442
  148PA     H7R 6596   4.312   3.584   4.647 -0.6504 -1.9144  0.2593
  148PA     H7S 6597   4.270   3.622   4.808 -0.4554  0.1026 -1.8308
  148PA     C16 6598   4.445   3.728   4.743 -0.0586  0.4178  0.5068
  148PA     H6R 6599   4.548   3.702   4.717  0.2915  0.1677  2.0183
  148PA     H6S 6600   4.410   3.789   4.660  0.0996 -1.1612 -0.7825
  148PA     C15 6601   4.447   3.802   4.873 -0.2558  0.4213  0.0965
  148PA     H5R 6602   4.349   3.839   4.904  0.0134  1.5823 -0.3809
  148PA     H5S 6603   4.490   3.732   4.945  0.9728 -0.2132 -1.2231
  148PA     C14 6604   4.540   3.926   4.877 -0.5904  0.2770 -0.4787
  148PA     H4R 6605   4.642   3.901   4.849  0.2997 -0.2690  2.8008
  148PA     H4S 6606   4.506   3.995   4.799 -0.5526 -0.1569 -0.8768
  148PA     C13 6607   4.534   4.001   5.004 -0.6693  0.0212 -0.1285
  148PA     H3R 6608   4.607   4.083   5.001 -1.4024  0.8020  1.7617
  148PA     H3S 6609   4.432   4.039   5.006 -0.4265  0.6983 -0.1511
  148PA     C12 6610   4.567   3.921   5.128 -0.1478 -0.4209 -0.3046
  148PA     H2R 6611   4.477   3.868   5.160 -0.6486 -0.3103 -1.4776
  148PA     H2S 6612   4.642   3.847   5.097  0.2122 -0.0604 -0.3012
  149PC     C11 6613   4.620   4.021   5.237  0.4873 -0.3919  0.0056
  149PC     O12 6614   4.567   4.128   5.268 -0.2100  0.4770 -0.6154
  149PC     O11 6615   4.744   3.991   5.277 -0.0506 -0.0382 -0.4879
  149PC      C1 6616   4.820   4.100   5.341  0.1213 -0.0416 -0.3927
  149PC      HR 6617   4.813   4.192   5.283 -0.7548 -0.0293 -0.2825
  149PC      HS 6618   4.784   4.114   5.443  2.8552 -0.9398  0.7815
  149PC      C2 6619   4.968   4.052   5.361  0.0111 -0.3252  0.0033
  149PC      HX 6620   4.960   3.962   5.423 -1.7808  0.5374  1.1281
  149PC      C3 6621   5.047   4.158   5.444 -0.2889 -0.1225 -0.2067
  149PC      HA 6622   5.150   4.121   5.455  0.0565  0.7065 -0.5134
  149PC      HB 6623   5.043   4.253   5.389 -2.8022 -0.8016 -1.2967
  149PC     O31 6624   4.980   4.178   5.571  0.2344 -0.5062 -0.8354
  149PC     P31 6625   4.992   4.078   5.692 -0.1772 -0.1085 -0.2553
  149PC     O32 6626   4.863   3.983   5.682  0.0343 -1.0466  0.4984
  149PC     C31 6627   4.734   4.030   5.705 -0.2479 -0.5135 -0.3668
  149PC     H1A 6628   4.717   4.064   5.807 -3.9806 -0.4668 -0.8347
  149PC     H1B 6629   4.713   4.121   5.647 -0.9395  0.9300  2.0051
  149PC     C32 6630   4.626   3.918   5.673  0.0259 -0.4522  0.6323
  149PC     H2A 6631   4.530   3.968   5.663  0.3194  0.2687  1.3211
  149PC     H2B 6632   4.640   3.868   5.577 -2.1252 -3.1878  1.5953
  149PC     N31 6633   4.619   3.806   5.775  0.1141 -0.6786 -0.2924
  149PC     C33 6634   4.496   3.726   5.764 -0.2273  0.3869  0.7681
  149PC     H3A 6635   4.494   3.644   5.836  0.2193  0.0673  0.4216
  149PC     H3B 6636   4.405   3.785   5.778 -1.6386 -1.7399  1.0421
  149PC     H3C 6637   4.493   3.687   5.662  0.9152 -1.5784  1.4230
  149PC     C34 6638   4.733   3.709   5.763 -0.3841 -0.3242  0.6957
  149PC     H4A 6639   4.828   3.760   5.782  0.8497 -1.9553 -0.6889
  149PC     H4B 6640   4.739   3.635   5.843  1.9470 -1.4507 -0.4107
  149PC     H4C 6641   4.735   3.654   5.669 -1.0578 -0.1634  0.5818
  149PC     C35 6642   4.611   3.860   5.912 -0.3019 -0.3153  0.1250
  149PC     H5A 6643   4.522   3.924   5.911  0.1178  0.3075  1.1819
  149PC     H5B 6644   4.695   3.925   5.934 -0.6508  0.2647 -0.2308
  149PC     H5C 6645   4.612   3.776   5.982  1.3485 -0.6276 -0.2306
  149PC     O33 6646   5.113   3.999   5.672  0.0390  0.2009  0.0595
  149PC     O34 6647   4.970   4.154   5.812 -0.2553  0.2139 -0.3301
  149PC     O21 6648   5.030   4.025   5.238 -0.4036 -0.2541  0.0992
  149PC     C21 6649   5.109   3.925   5.211  0.0538  0.3842  0.2409
  149PC     O22 6650   5.140   3.830   5.284 -0.1878  0.2559  0.9747
  150OL     C12 6651   5.176   3.940   5.073  0.5532 -0.4020  0.5294
  150OL     H2R 6652   5.103   3.963   4.996  1.1151  0.7679  0.3358
  150OL     H2S 6653   5.211   3.838   5.057  0.9485 -0.1811 -0.0256
  150OL     C13 6654   5.298   4.035   5.077 -0.3288 -0.8018 -0.0795
  150OL     H3R 6655   5.357   3.999   5.162  0.6426 -1.0656 -0.8498
  150OL     H3S 6656   5.279   4.142   5.076  1.1481 -0.5183 -1.0309
  150OL     C14 6657   5.376   4.028   4.945 -0.3221 -0.4597  0.3540
  150OL     H4R 6658   5.310   4.057   4.863 -1.4964 -1.1464  1.0292
  150OL     H4S 6659   5.410   3.925   4.934 -1.9154 -0.8527 -1.3650
  150OL     C15 6660   5.490   4.124   4.953 -0.3108  0.5187 -0.6517
  150OL     H5R 6661   5.554   4.094   5.037  3.0530 -1.0616 -3.4873
  150OL     H5S 6662   5.453   4.226   4.961  0.0803  1.0079 -3.7564
  150OL     C16 6663   5.567   4.124   4.818 -0.4990  0.3002 -0.1998
  150OL     H6R 6664   5.601   4.022   4.798 -0.4565  0.1764  0.4669
  150OL     H6S 6665   5.657   4.185   4.825 -0.2101 -0.2782  2.3852
  150OL     C17 6666   5.490   4.178   4.693 -0.1668 -0.0919  0.1276
  150OL     H7R 6667   5.455   4.279   4.712  1.4698  0.1884  1.9189
  150OL     H7S 6668   5.404   4.114   4.672  1.6155 -2.3822 -0.6170
  150OL     C18 6669   5.568   4.172   4.564 -0.8675  0.5349 -0.3169
  150OL     H8R 6670   5.650   4.244   4.569 -1.5624  1.3719 -0.6132
  150OL     H8S 6671   5.502   4.204   4.483  1.4808  0.2951 -2.4503
  150OL     C19 6672   5.617   4.024   4.540 -0.2088  0.7335 -0.3130
  150OL     H9R 6673   5.686   3.989   4.616  0.3165 -0.5280 -1.3330
  150OL    C110 6674   5.582   3.939   4.447 -0.5069 -0.8901  0.2316
  150OL    H10R 6675   5.635   3.845   4.439  1.3799  0.2832 -1.9662
  150OL    C111 6676   5.465   3.958   4.356 -0.0523 -0.5890  0.0161
  150OL    H11R 6677   5.408   4.048   4.379  0.8593  0.4233 -1.4853
  150OL    H11S 6678   5.394   3.876   4.368  1.2944 -1.5734  1.7054
  150OL    C112 6679   5.498   3.961   4.208  0.3133  0.1799  0.2328
  150OL    H12R 6680   5.574   4.038   4.193 -0.6223  0.7900 -1.6435
  150OL    H12S 6681   5.404   3.996   4.168  1.9353  1.2717 -3.0123
  150OL    C113 6682   5.548   3.822   4.166  0.0034 -0.0561  0.1448
  150OL    H13R 6683   5.474   3.748   4.196 -0.1944  0.1580  0.1932
  150OL    H13S 6684   5.642   3.796   4.215 -0.4065 -0.9251  0.4773
  150OL    C114 6685   5.576   3.824   4.017 -0.3469  0.1885  0.5611
  150OL    H14R 6686   5.619   3.731   3.980  0.6400 -0.0217  2.1130
  150OL    H14S 6687   5.650   3.901   3.994 -2.3571  1.8702 -0.6634
  150OL    C115 6688   5.440   3.842   3.936 -1.0335 -0.1059 -0.3729
  150OL    H15R 6689   5.465   3.816   3.833 -0.0779 -0.9160  0.0431
  150OL    H15S 6690   5.407   3.945   3.948 -0.6668 -0.0986  0.7209
  150OL    C116 6691   5.319   3.769   3.983  0.4118  0.7712 -0.2385
  150OL    H16R 6692   5.289   3.798   4.084 -0.6106  0.1285 -0.3405
  150OL    H16S 6693   5.359   3.669   3.993  0.4480  0.9008  1.0036
  150OL    C117 6694   5.196   3.773   3.891  0.1623 -0.2407 -0.0231
  150OL    H17R 6695   5.117   3.706   3.925  1.7136 -1.8140  0.6434
  150OL    H17S 6696   5.236   3.736   3.796  0.2733 -1.0069  0.3179
  150OL    C118 6697   5.145   3.912   3.864  0.4803 -0.2061 -0.1120
  150OL    H18R 6698   5.231   3.974   3.837  0.5530 -0.5864 -0.7646
  150OL    H18S 6699   5.100   3.946   3.958  1.3481 -0.7750  0.5231
  150OL    H18T 6700   5.068   3.917   3.787 -0.2260 -0.6598  0.5514
  151PA    C116 6701   5.020   4.229   3.658 -0.2797  0.3898  0.0694
  151PA    H16R 6702   5.115   4.202   3.613 -0.6277  0.4045 -0.6877
  151PA    H16S 6703   4.955   4.273   3.583 -1.3169  1.6854  1.6503
  151PA    H16T 6704   4.974   4.136   3.693  0.2891  0.5589  1.2975
  151PA    C115 6705   5.030   4.312   3.791  0.0073 -0.1665 -0.0808
  151PA    H15R 6706   5.077   4.409   3.774  4.3611 -2.0757 -0.4479
  151PA    H15S 6707   4.930   4.332   3.829 -0.0692 -1.1686  0.2713
  151PA    C114 6708   5.098   4.240   3.904 -0.1529 -0.3359 -0.1983
  151PA    H14R 6709   5.050   4.145   3.931 -2.3225  0.6328 -0.4333
  151PA    H14S 6710   5.201   4.221   3.875 -0.0623  1.0573 -0.8658
  151PA    C113 6711   5.098   4.318   4.040  0.3373  0.6109  0.2239
  151PA    H13R 6712   5.179   4.391   4.036  0.0482  0.9630  0.6674
  151PA    H13S 6713   5.007   4.376   4.052  1.0375  1.6701  0.5185
  151PA    C112 6714   5.125   4.232   4.163  0.5055  0.4320 -0.5116
  151PA    H12R 6715   5.077   4.135   4.147 -0.7920  0.3684  2.9927
  151PA    H12S 6716   5.232   4.228   4.186 -0.1095  0.2937  2.7441
  151PA    C111 6717   5.065   4.299   4.288  0.0618  0.3594 -0.8686
  151PA    H11R 6718   5.072   4.408   4.288 -1.1012  0.4572  0.6047
  151PA    H11S 6719   4.957   4.284   4.299  0.3433 -1.0675  0.2614
  151PA    C110 6720   5.138   4.235   4.421  0.5677 -0.4263  0.7446
  151PA    H10R 6721   5.125   4.128   4.406 -0.2101  0.0118 -2.3754
  151PA    H10S 6722   5.243   4.264   4.421  0.4968  0.1520 -2.3437
  151PA     C19 6723   5.075   4.287   4.558  0.3062  0.0362 -0.1230
  151PA     H9R 6724   5.115   4.386   4.578 -2.2788  0.7975  1.9195
  151PA     H9S 6725   4.967   4.303   4.551  0.0500 -0.9455  1.1096
  151PA     C18 6726   5.105   4.197   4.684  0.2437  0.1363 -0.5384
  151PA     H8R 6727   5.062   4.100   4.657 -2.0623  1.6671 -2.8481
  151PA     H8S 6728   5.214   4.186   4.690  0.2921  0.8435 -0.0172
  151PA     C17 6729   5.041   4.246   4.815  0.0471  0.1827  0.6842
  151PA     H7R 6730   4.940   4.277   4.789  0.1455 -1.4724 -2.0100
  151PA     H7S 6731   5.052   4.166   4.889  4.2663  0.0232  0.1118
  151PA     C16 6732   5.136   4.364   4.868  0.4864  0.4772 -0.4808
  151PA     H6R 6733   5.239   4.329   4.878 -0.4502 -1.9992  1.7890
  151PA     H6S 6734   5.134   4.450   4.801  2.1707 -1.4338 -3.2120
  151PA     C15 6735   5.091   4.393   5.014  0.6171 -0.6184  0.0394
  151PA     H5R 6736   4.989   4.432   5.019  1.8754  2.9850  1.3467
  151PA     H5S 6737   5.096   4.305   5.078 -1.9800 -0.2371  0.8973
  151PA     C14 6738   5.172   4.496   5.089  0.4523  0.3988  0.5211
  151PA     H4R 6739   5.277   4.469   5.106 -0.1884 -0.5663  3.4592
  151PA     H4S 6740   5.173   4.593   5.038 -1.9581  0.9097  1.3277
  151PA     C13 6741   5.121   4.533   5.226  0.2672  0.1717 -0.3907
  151PA     H3R 6742   5.018   4.570   5.228 -0.1461 -0.9737  0.6574
  151PA     H3S 6743   5.111   4.442   5.284 -2.6412  0.8793  0.3801
  151PA     C12 6744   5.204   4.637   5.301 -0.9745 -0.3200  0.3989
  151PA     H2R 6745   5.285   4.581   5.349 -0.6305 -0.2539 -0.1026
  151PA     H2S 6746   5.247   4.713   5.237  0.2016  0.5262  2.1114
  152PC     C11 6747   5.131   4.720   5.401 -0.0449  0.1601  0.2436
  152PC     O12 6748   5.070   4.669   5.494 -0.4094  0.3831 -0.4112
  152PC     O11 6749   5.130   4.851   5.378  0.5462 -0.4456 -0.2307
  152PC      C1 6750   5.070   4.944   5.472 -0.1292  0.2901  0.4015
  152PC      HR 6751   4.963   4.925   5.464  0.2288 -1.1371 -2.2365
  152PC      HS 6752   5.113   4.914   5.569  0.4368 -1.5948 -0.3743
  152PC      C2 6753   5.094   5.085   5.414  0.9519  0.3024  0.6417
  152PC      HX 6754   5.199   5.116   5.418  0.3004  2.7122  0.4081
  152PC      C3 6755   5.006   5.184   5.499  0.2154  0.0054 -0.2081
  152PC      HA 6756   5.014   5.290   5.475 -1.6135  0.7222  1.9374
  152PC      HB 6757   4.901   5.153   5.495  0.3124 -0.4201  0.3594
  152PC     O31 6758   5.045   5.180   5.635  0.5095 -0.0055  0.0925
  152PC     P31 6759   5.167   5.268   5.695  0.0884  0.1714  0.1913
  152PC     O32 6760   5.108   5.419   5.678 -0.0753 -0.0637  0.1042
  152PC     C31 6761   4.991   5.464   5.742 -0.0633 -0.7383  0.0260
  152PC     H1A 6762   4.939   5.531   5.673 -0.6544 -0.7893  0.4141
  152PC     H1B 6763   4.925   5.380   5.761 -2.3439  1.0085  0.3214
  152PC     C32 6764   5.049   5.548   5.861  0.0169 -0.1694 -0.8488
  152PC     H2A 6765   5.108   5.491   5.933 -0.0351 -1.5195 -1.8507
  152PC     H2B 6766   5.119   5.621   5.818  0.1838 -0.6354 -1.3752
  152PC     N31 6767   4.944   5.623   5.949 -0.4130 -0.1859 -0.2373
  152PC     C33 6768   4.873   5.540   6.050 -0.0487 -0.2436 -0.2834
  152PC     H3A 6769   4.826   5.459   5.993 -1.0006 -0.2746  0.5295
  152PC     H3B 6770   4.934   5.510   6.135  1.8233  0.3038 -1.3727
  152PC     H3C 6771   4.799   5.604   6.097 -1.1415 -0.5201 -1.5626
  152PC     C34 6772   5.011   5.730   6.016 -0.4203 -0.8408 -0.4964
  152PC     H4A 6773   4.949   5.800   6.072 -0.8933 -1.0890 -0.7025
  152PC     H4B 6774   5.084   5.684   6.083  1.6758  1.8228 -0.7657
  152PC     H4C 6775   5.058   5.782   5.932 -3.3752  1.3018 -0.9510
  152PC     C35 6776   4.841   5.699   5.875 -0.0100 -0.3364  0.6731
  152PC     H5A 6777   4.784   5.755   5.949 -1.5597  0.3192 -0.9372
  152PC     H5B 6778   4.774   5.625   5.831  0.0092 -0.1337  0.2895
  152PC     H5C 6779   4.883   5.764   5.797 -0.3972  1.1448  1.6584
  152PC     O33 6780   5.176   5.225   5.836  1.0254  0.8684  0.4673
  152PC     O34 6781   5.285   5.260   5.606  0.0244 -0.8707  0.0736
  152PC     O21 6782   5.038   5.088   5.276 -0.5394  0.4607  0.2749
  152PC     C21 6783   5.100   5.172   5.192  0.3576  0.0272  0.0193
  152PC     O22 6784   5.191   5.242   5.230  0.3524 -0.1602 -0.2531
  153OL     C12 6785   5.055   5.166   5.047  0.2194 -0.0499  0.4565
  153OL     H2R 6786   4.996   5.256   5.029 -1.1796 -1.2654 -1.4465
  153OL     H2S 6787   4.982   5.086   5.032 -2.8190  2.8740 -1.9893
  153OL     C13 6788   5.176   5.164   4.952 -0.4439 -0.1622 -0.1351
  153OL     H3R 6789   5.263   5.218   4.990 -1.9279  1.0124  1.6891
  153OL     H3S 6790   5.151   5.216   4.859 -1.6399 -3.8536 -2.0696
  153OL     C14 6791   5.216   5.020   4.919 -0.2599  0.9109  0.0691
  153OL     H4R 6792   5.135   4.966   4.870  1.0194 -1.0854  0.0401
  153OL     H4S 6793   5.237   4.969   5.013  0.2285 -4.6647 -2.6431
  153OL     C15 6794   5.344   5.004   4.834 -0.6947 -0.0054 -0.5661
  153OL     H5R 6795   5.429   5.061   4.872  0.4623 -0.8239 -1.8201
  153OL     H5S 6796   5.345   5.048   4.734 -2.0133 -0.5784 -0.8534
  153OL     C16 6797   5.385   4.856   4.827 -0.1239 -0.9647  0.5474
  153OL     H6R 6798   5.386   4.823   4.931  1.6899  0.6044  1.0795
  153OL     H6S 6799   5.487   4.846   4.789 -0.2102 -2.1221  0.5731
  153OL     C17 6800   5.307   4.768   4.730  0.0095 -0.2029  0.4730
  153OL     H7R 6801   5.200   4.770   4.749 -0.7833 -0.9220 -3.1178
  153OL     H7S 6802   5.337   4.665   4.751 -1.3845 -0.7507 -0.1173
  153OL     C18 6803   5.322   4.807   4.583  0.4770 -0.0220  0.1571
  153OL     H8R 6804   5.425   4.800   4.548  0.4275  0.0066  0.0066
  153OL     H8S 6805   5.285   4.909   4.575  0.8575  0.0906 -0.2556
  153OL     C19 6806   5.224   4.715   4.508 -0.6006  0.2307 -0.0228
  153OL     H9R 6807   5.118   4.726   4.529 -0.4089 -0.6224  1.5956
  153OL    C110 6808   5.249   4.625   4.412  0.3641  0.2758  1.1685
  153OL    H10R 6809   5.170   4.562   4.371 -0.5084  1.3212  1.2144
  153OL    C111 6810   5.385   4.609   4.352 -0.8422  0.3082 -0.1093
  153OL    H11R 6811   5.388   4.518   4.291  0.5259  0.1147  0.2279
  153OL    H11S 6812   5.462   4.609   4.429 -2.1834 -1.2805  1.3240
  153OL    C112 6813   5.415   4.725   4.258 -0.4754 -0.7441 -0.0508
  153OL    H12R 6814   5.400   4.816   4.317 -0.0032 -0.8106  0.1751
  153OL    H12S 6815   5.345   4.720   4.174  0.5756 -0.8189 -0.9517
  153OL    C113 6816   5.563   4.729   4.213 -0.2760 -0.0666  0.5941
  153OL    H13R 6817   5.591   4.635   4.166 -0.6341  0.3619 -0.5028
  153OL    H13S 6818   5.623   4.740   4.304  1.5418 -0.9965 -0.4342
  153OL    C114 6819   5.609   4.835   4.116 -0.2652 -0.3821  0.5963
  153OL    H14R 6820   5.627   4.923   4.178  2.7012 -0.9564  0.6724
  153OL    H14S 6821   5.532   4.858   4.042  0.9732  1.9757 -0.0570
  153OL    C115 6822   5.735   4.797   4.039  0.6988 -0.0488 -0.2926
  153OL    H15R 6823   5.742   4.857   3.948 -0.5692 -0.9549 -1.0124
  153OL    H15S 6824   5.714   4.696   4.003 -0.5614  0.5425 -1.3143
  153OL    C116 6825   5.864   4.790   4.119 -0.0437  0.1568  0.3241
  153OL    H16R 6826   5.846   4.711   4.193 -2.1218  0.7422  0.4863
  153OL    H16S 6827   5.883   4.886   4.169  0.7186 -0.3312  1.0030
  153OL    C117 6828   5.992   4.752   4.035 -0.0950 -0.1299  0.1706
  153OL    H17R 6829   6.003   4.832   3.961 -0.8542 -0.6450 -0.5184
  153OL    H17S 6830   5.972   4.659   3.982  0.6704  0.4312 -1.1886
  153OL    C118 6831   6.118   4.741   4.118 -0.7531  0.3251 -0.0061
  153OL    H18R 6832   6.131   4.839   4.163  1.9651 -0.3638  0.8521
  153OL    H18S 6833   6.200   4.718   4.051 -0.4109 -2.2963  1.1935
  153OL    H18T 6834   6.110   4.670   4.201  2.1470 -0.0633  0.0134
  154PA    C116 6835   1.695   2.717   4.104 -0.0069 -0.2541 -0.4069
  154PA    H16R 6836   1.761   2.655   4.165 -0.7381 -1.0537 -0.4182
  154PA    H16S 6837   1.614   2.661   4.058 -0.7697 -0.4221  1.0648
  154PA    H16T 6838   1.665   2.806   4.160 -0.0072 -0.4402 -0.1072
  154PA    C115 6839   1.776   2.760   3.978 -0.5932 -0.1319 -0.2289
  154PA    H15R 6840   1.827   2.667   3.950  1.6926  0.7382  0.7510
  154PA    H15S 6841   1.704   2.789   3.901 -1.3476  0.8604  0.8160
  154PA    C114 6842   1.890   2.867   3.992 -0.3844  0.0176 -0.5497
  154PA    H14R 6843   1.943   2.869   3.896 -3.2751 -0.3105 -2.2732
  154PA    H14S 6844   1.849   2.967   4.009 -1.0598 -0.7233  2.6713
  154PA    C113 6845   1.988   2.834   4.106  0.5619  0.4811  0.4857
  154PA    H13R 6846   1.931   2.846   4.198  0.5738 -0.6960  0.6659
  154PA    H13S 6847   2.014   2.728   4.096 -2.8422 -0.2906 -1.8458
  154PA    C112 6848   2.116   2.918   4.110  0.3883  0.7581 -0.5924
  154PA    H12R 6849   2.176   2.902   4.020  1.3172  0.4117  0.0684
  154PA    H12S 6850   2.085   3.022   4.123 -0.2908  0.5789 -0.7398
  154PA    C111 6851   2.209   2.888   4.232  0.8156 -0.1833  0.3801
  154PA    H11R 6852   2.225   2.780   4.231  1.6333 -0.0712 -1.0873
  154PA    H11S 6853   2.310   2.924   4.212  0.7256 -0.6353 -0.9735
  154PA    C110 6854   2.151   2.923   4.367 -0.3290 -0.5405 -0.5982
  154PA    H10R 6855   2.047   2.891   4.377 -0.6339  0.5901 -0.0017
  154PA    H10S 6856   2.208   2.871   4.444  0.1044  1.4315  0.4688
  154PA     C19 6857   2.158   3.079   4.387 -0.3264  0.1660  0.1125
  154PA     H9R 6858   2.258   3.123   4.389 -1.1757  2.1760  2.2263
  154PA     H9S 6859   2.097   3.125   4.308 -2.7731  1.2437  2.4536
  154PA     C18 6860   2.087   3.122   4.516 -0.0343 -0.4113 -0.0031
  154PA     H8R 6861   2.077   3.231   4.512  0.2123 -0.4030 -0.4905
  154PA     H8S 6862   1.986   3.082   4.524 -0.5893  1.0015  0.4004
  154PA     C17 6863   2.172   3.090   4.641 -0.1913 -0.3641  0.2938
  154PA     H7R 6864   2.177   2.982   4.657  0.8356 -0.5032 -0.8205
  154PA     H7S 6865   2.277   3.115   4.622 -0.2289 -1.7784 -2.3964
  154PA     C16 6866   2.117   3.166   4.771 -0.4835  0.5087  0.1972
  154PA     H6R 6867   2.080   3.266   4.749  0.7087  1.0263  0.4494
  154PA     H6S 6868   2.033   3.110   4.813  0.1045  1.4848  2.8156
  154PA     C15 6869   2.212   3.182   4.888  0.3221  0.5553 -0.2796
  154PA     H5R 6870   2.288   3.103   4.887 -2.2887 -2.1657  0.4884
  154PA     H5S 6871   2.265   3.277   4.874  1.2120 -0.0757 -1.4098
  154PA     C14 6872   2.144   3.172   5.031 -0.1092  0.5054  0.6859
  154PA     H4R 6873   2.066   3.248   5.041  1.0311  1.8880 -0.4572
  154PA     H4S 6874   2.092   3.076   5.040 -0.0630  0.3216 -0.8449
  154PA     C13 6875   2.234   3.189   5.154  0.2780 -0.1113  0.2462
  154PA     H3R 6876   2.311   3.111   5.158  0.3786 -0.0528 -0.4760
  154PA     H3S 6877   2.292   3.281   5.142  0.8786 -0.5620 -0.4440
  154PA     C12 6878   2.166   3.189   5.289 -0.1363 -0.2862 -0.3777
  154PA     H2R 6879   2.089   3.112   5.285  0.3346 -0.7820 -0.1372
  154PA     H2S 6880   2.233   3.157   5.370  0.6201  3.3508  0.6112
  155PC     C11 6881   2.105   3.327   5.331  0.0488 -0.7441  0.2663
  155PC     O12 6882   1.997   3.373   5.295 -0.3536  0.3592 -0.1938
  155PC     O11 6883   2.190   3.375   5.425  0.2152  0.5980  0.3333
  155PC      C1 6884   2.148   3.504   5.491  0.2715  0.9635  0.2491
  155PC      HR 6885   2.102   3.564   5.412  1.1530  2.3619  0.7703
  155PC      HS 6886   2.075   3.489   5.571  1.9639  0.4423  1.7587
  155PC      C2 6887   2.264   3.591   5.549 -0.1560  0.3647 -0.1354
  155PC      HX 6888   2.324   3.521   5.608 -0.3400 -0.3927 -0.8245
  155PC      C3 6889   2.206   3.707   5.642 -0.1580 -0.1960 -0.2890
  155PC      HA 6890   2.286   3.775   5.673 -0.9567 -0.3591  2.3888
  155PC      HB 6891   2.135   3.761   5.579  1.6878  2.4121 -0.3021
  155PC     O31 6892   2.136   3.652   5.762 -0.3548 -0.6382  0.1531
  155PC     P31 6893   2.210   3.652   5.908  0.0144  0.0425  0.1221
  155PC     O32 6894   2.157   3.774   5.995  0.2234  0.7657  0.3051
  155PC     C31 6895   2.165   3.903   5.945  0.0341  0.4247  0.7234
  155PC     H1A 6896   2.266   3.938   5.923 -0.4870  1.5912  0.1315
  155PC     H1B 6897   2.106   3.910   5.853  2.6033  1.1727 -0.9658
  155PC     C32 6898   2.100   3.977   6.054  0.3861 -0.3194 -0.3530
  155PC     H2A 6899   2.068   4.072   6.011  1.2463  1.1889  2.1628
  155PC     H2B 6900   2.015   3.917   6.087  0.2732  0.7831  1.4953
  155PC     N31 6901   2.174   4.008   6.185  0.4836  0.2365 -0.1417
  155PC     C33 6902   2.082   4.086   6.282  0.3351 -0.2640 -0.3650
  155PC     H3A 6903   2.002   4.013   6.299 -0.2981 -0.0225 -2.0705
  155PC     H3B 6904   2.133   4.112   6.374 -0.0176 -0.8603  0.0078
  155PC     H3C 6905   2.044   4.176   6.233  1.4098  0.4644  0.1155
  155PC     C34 6906   2.220   3.888   6.249  0.1522 -0.2316  0.5273
  155PC     H4A 6907   2.264   3.930   6.339  0.1505  1.0862 -0.0544
  155PC     H4B 6908   2.136   3.823   6.274  0.4364 -1.3774 -1.2727
  155PC     H4C 6909   2.293   3.837   6.185 -0.1375 -2.1033  1.5992
  155PC     C35 6910   2.288   4.091   6.147 -1.1272 -0.4659  0.4559
  155PC     H5A 6911   2.347   4.100   6.238  1.4617  0.4975 -1.2031
  155PC     H5B 6912   2.246   4.184   6.108 -0.8927 -0.3333  0.5145
  155PC     H5C 6913   2.350   4.043   6.071 -1.9896 -1.9858  0.6691
  155PC     O33 6914   2.166   3.528   5.969 -0.1006 -0.2370 -0.4302
  155PC     O34 6915   2.355   3.665   5.889  0.2288  0.0415 -0.0854
  155PC     O21 6916   2.333   3.649   5.435  0.2455  0.0324  0.3058
  155PC     C21 6917   2.415   3.572   5.356 -0.8768  0.1877 -0.3394
  155PC     O22 6918   2.454   3.464   5.398  0.0646 -0.4223 -0.0346
  156OL     C12 6919   2.454   3.641   5.230  0.2788 -0.2412  0.4314
  156OL     H2R 6920   2.433   3.748   5.243  0.7021 -0.0028 -0.7203
  156OL     H2S 6921   2.380   3.604   5.159  1.1269 -0.7860 -0.1844
  156OL     C13 6922   2.599   3.611   5.180 -0.0240  0.2050  0.1752
  156OL     H3R 6923   2.604   3.503   5.165 -0.4689  0.0174  1.2763
  156OL     H3S 6924   2.667   3.635   5.261  0.8991 -2.6165  0.3498
  156OL     C14 6925   2.622   3.679   5.041  0.5431 -0.1806  0.3974
  156OL     H4R 6926   2.594   3.785   5.042  0.7255  0.0211 -2.9487
  156OL     H4S 6927   2.550   3.638   4.970  0.4593  1.4789 -0.5295
  156OL     C15 6928   2.771   3.676   4.983 -0.3682 -0.6658 -0.7209
  156OL     H5R 6929   2.789   3.570   4.965  1.3198 -0.1500 -2.3126
  156OL     H5S 6930   2.848   3.722   5.046 -1.1204 -0.1159 -0.1913
  156OL     C16 6931   2.787   3.746   4.840 -0.1652 -0.5582  0.2845
  156OL     H6R 6932   2.883   3.716   4.798 -0.1895 -0.6252  0.2774
  156OL     H6S 6933   2.784   3.855   4.853  1.9433 -0.4025 -0.0921
  156OL     C17 6934   2.688   3.717   4.725  0.1642  0.2862  0.3944
  156OL     H7R 6935   2.599   3.774   4.752  1.9127  3.5859 -0.2308
  156OL     H7S 6936   2.670   3.610   4.736  2.4842 -0.2478 -0.4073
  156OL     C18 6937   2.740   3.744   4.584  0.2710 -0.7499  0.1958
  156OL     H8R 6938   2.810   3.676   4.537 -0.6718 -1.2420 -0.5344
  156OL     H8S 6939   2.800   3.835   4.590  1.5067 -1.5041 -0.3880
  156OL     C19 6940   2.626   3.736   4.485 -0.0893  0.3911  0.2312
  156OL     H9R 6941   2.600   3.636   4.453 -2.8421  1.0424  0.2354
  156OL    C110 6942   2.559   3.838   4.436  1.0282 -0.3267  0.3396
  156OL    H10R 6943   2.470   3.829   4.374 -0.1349  0.3582  1.8122
  156OL    C111 6944   2.594   3.979   4.480 -0.0735  0.0669 -0.4591
  156OL    H11R 6945   2.614   3.991   4.587 -0.1790  0.5946 -0.4935
  156OL    H11S 6946   2.507   4.042   4.462  0.4283  0.8985 -0.0482
  156OL    C112 6947   2.708   4.026   4.389  0.6392 -0.5585 -1.0646
  156OL    H12R 6948   2.680   4.008   4.285 -0.2818  0.1140 -0.9463
  156OL    H12S 6949   2.797   3.971   4.419  1.6120  2.0051  1.2082
  156OL    C113 6950   2.746   4.179   4.405  0.1323 -0.6955 -0.7988
  156OL    H13R 6951   2.657   4.237   4.433 -0.7058 -1.1665 -2.3799
  156OL    H13S 6952   2.773   4.218   4.307  1.3372 -0.3691 -0.3528
  156OL    C114 6953   2.847   4.231   4.509 -0.8166  0.2934  0.2838
  156OL    H14R 6954   2.888   4.325   4.472  1.7200 -0.7374  0.2652
  156OL    H14S 6955   2.934   4.165   4.509 -0.5784  0.6028  0.8743
  156OL    C115 6956   2.789   4.249   4.650 -0.7086  0.4124  0.2347
  156OL    H15R 6957   2.757   4.147   4.672 -0.0171  0.2796  0.6677
  156OL    H15S 6958   2.700   4.312   4.650 -0.1771  1.3155 -2.4057
  156OL    C116 6959   2.900   4.294   4.755 -0.2180  0.6620 -0.2742
  156OL    H16R 6960   2.956   4.378   4.713  1.4211  0.6737  1.7696
  156OL    H16S 6961   2.970   4.211   4.758  0.6227  1.3735  1.6441
  156OL    C117 6962   2.859   4.321   4.900  0.3769 -0.7195 -0.3395
  156OL    H17R 6963   2.944   4.375   4.943 -0.3081  1.2497 -1.3229
  156OL    H17S 6964   2.831   4.236   4.963 -0.5304 -0.6094 -0.5791
  156OL    C118 6965   2.744   4.429   4.899  0.0395  1.3370  0.4286
  156OL    H18R 6966   2.684   4.412   4.989 -0.1869  3.6545  0.7743
  156OL    H18S 6967   2.694   4.427   4.802  1.3115 -2.3472 -0.2979
  156OL    H18T 6968   2.803   4.521   4.897  2.0431  0.1377 -2.3096
  157PA    C116 6969   6.015   5.248   4.177 -0.0366  0.1178  0.9205
  157PA    H16R 6970   5.943   5.197   4.113 -0.2643  1.6827 -0.1159
  157PA    H16S 6971   6.041   5.351   4.153 -1.7746  0.1792 -0.8627
  157PA    H16T 6972   5.965   5.246   4.274  0.3182 -0.5758  1.0943
  157PA    C115 6973   6.141   5.164   4.182 -0.8844  0.0563 -0.1738
  157PA    H15R 6974   6.111   5.060   4.186  0.6706 -0.4633 -1.0837
  157PA    H15S 6975   6.201   5.183   4.093  0.6800  2.4292  1.2653
  157PA    C114 6976   6.225   5.188   4.303 -0.3511  1.0267 -0.8243
  157PA    H14R 6977   6.288   5.277   4.296  1.8314 -0.1175  2.0678
  157PA    H14S 6978   6.175   5.211   4.397  1.4562  1.1704  0.1491
  157PA    C113 6979   6.328   5.083   4.346 -0.2875  0.0210  0.0972
  157PA    H13R 6980   6.402   5.072   4.266 -0.8195 -0.4615 -0.3404
  157PA    H13S 6981   6.382   5.127   4.430  0.9550  1.1320 -1.2314
  157PA    C112 6982   6.283   4.943   4.391 -0.2691 -0.2150  0.6813
  157PA    H12R 6983   6.245   4.879   4.312  0.9280  2.8287 -2.6177
  157PA    H12S 6984   6.367   4.893   4.440 -0.0301 -0.2828  0.2044
  157PA    C111 6985   6.171   4.961   4.494  0.5037 -0.2597 -0.4630
  157PA    H11R 6986   6.075   4.992   4.452 -0.4613 -2.6607 -0.1817
  157PA    H11S 6987   6.141   4.860   4.521 -0.7863 -0.1380 -1.3553
  157PA    C110 6988   6.197   5.034   4.631 -0.2795  0.3394 -0.1706
  157PA    H10R 6989   6.276   4.980   4.684 -0.4639 -0.3312 -0.5560
  157PA    H10S 6990   6.248   5.130   4.622  1.2075 -0.1440  2.1734
  157PA     C19 6991   6.076   5.043   4.724 -0.4727 -0.0759 -0.5410
  157PA     H9R 6992   5.994   5.104   4.686 -1.8212 -0.1170  2.0507
  157PA     H9S 6993   6.028   4.945   4.734 -1.2820  0.2878 -0.7880
  157PA     C18 6994   6.120   5.112   4.852  0.0112  0.9101 -0.2907
  157PA     H8R 6995   6.172   5.044   4.920  1.0133  1.8668 -0.0722
  157PA     H8S 6996   6.190   5.194   4.831 -0.4209  0.6190 -3.1756
  157PA     C17 6997   5.997   5.154   4.935  0.0240 -0.2851  0.0876
  157PA     H7R 6998   6.032   5.206   5.024  1.0297  0.5298 -0.7561
  157PA     H7S 6999   5.951   5.239   4.886 -1.7380  0.5526  2.9607
  157PA     C16 7000   5.891   5.048   4.962  0.3700 -0.1892 -0.5703
  157PA     H6R 7001   5.867   4.993   4.871  1.6169 -0.5319 -0.7162
  157PA     H6S 7002   5.936   4.973   5.027 -0.6066  0.6094  1.0929
  157PA     C15 7003   5.759   5.100   5.019  0.2999 -0.6689 -0.1981
  157PA     H5R 7004   5.786   5.167   5.101 -0.8068  1.7735 -1.7102
  157PA     H5S 7005   5.702   5.157   4.945 -0.2614  0.8789  1.3677
  157PA     C14 7006   5.675   4.992   5.080  0.1955  0.5334 -0.1869
  157PA     H4R 7007   5.627   4.936   5.000 -1.0245 -1.7109  1.9563
  157PA     H4S 7008   5.741   4.915   5.121 -0.4731 -0.3423 -0.7366
  157PA     C13 7009   5.573   5.046   5.190  0.5484 -0.8390 -0.3650
  157PA     H3R 7010   5.626   5.088   5.276 -0.2853  0.7331 -0.5685
  157PA     H3S 7011   5.518   5.133   5.152  1.2011  0.8762  2.2808
  157PA     C12 7012   5.481   4.931   5.235 -0.1634 -0.1558  0.2640
  157PA     H2R 7013   5.379   4.969   5.253 -1.0301 -2.2095 -0.0538
  157PA     H2S 7014   5.464   4.860   5.154  0.8447 -0.7933  0.6089
  158PC     C11 7015   5.543   4.864   5.355 -0.4194  0.1650 -0.3815
  158PC     O12 7016   5.490   4.857   5.463  0.6537 -0.4857 -0.3736
  158PC     O11 7017   5.667   4.819   5.328 -0.3188  0.1579  0.1721
  158PC      C1 7018   5.745   4.764   5.441  0.2697  0.2261  0.5483
  158PC      HR 7019   5.850   4.748   5.414  0.4482  2.3143 -0.1757
  158PC      HS 7020   5.741   4.833   5.525  0.2062  1.0177 -0.0906
  158PC      C2 7021   5.689   4.631   5.484 -0.9518  0.1605 -0.0609
  158PC      HX 7022   5.584   4.642   5.512 -0.7787 -0.8218  1.0387
  158PC      C3 7023   5.771   4.585   5.606 -0.8362 -0.1850 -1.1384
  158PC      HA 7024   5.859   4.532   5.568 -0.2308  1.5666 -2.3077
  158PC      HB 7025   5.800   4.669   5.669  0.9383 -2.7534  1.7962
  158PC     O31 7026   5.692   4.487   5.686  0.3352  0.0316  0.7110
  158PC     P31 7027   5.564   4.538   5.772 -0.1457  0.1831 -0.3583
  158PC     O32 7028   5.442   4.535   5.673  0.3142 -0.4037 -0.4241
  158PC     C31 7029   5.370   4.411   5.644  0.0628  0.6649 -0.9692
  158PC     H1A 7030   5.300   4.422   5.561 -0.2684  2.6013 -0.4868
  158PC     H1B 7031   5.446   4.334   5.624 -0.2435  0.0798  0.0502
  158PC     C32 7032   5.291   4.361   5.769 -0.0968 -0.5043 -0.0869
  158PC     H2A 7033   5.247   4.266   5.737  0.4143 -0.7318 -0.1335
  158PC     H2B 7034   5.364   4.326   5.843  0.7942 -1.6637 -1.4691
  158PC     N31 7035   5.179   4.439   5.827 -0.0958  0.2250  0.2587
  158PC     C33 7036   5.137   4.385   5.958  0.0115 -0.2124  0.2283
  158PC     H3A 7037   5.229   4.350   6.005  0.6595  1.7989  0.5509
  158PC     H3B 7038   5.080   4.458   6.015 -0.7872 -0.3328 -0.3973
  158PC     H3C 7039   5.067   4.303   5.940 -0.4639  0.3024 -0.3150
  158PC     C34 7040   5.220   4.578   5.852  0.2253  0.1987 -0.2868
  158PC     H4A 7041   5.260   4.635   5.769 -0.1433  0.3079 -0.3904
  158PC     H4B 7042   5.133   4.632   5.891 -0.0807 -1.6004  1.7107
  158PC     H4C 7043   5.304   4.579   5.922  2.4882  0.0380 -2.8646
  158PC     C35 7044   5.068   4.443   5.727  0.0144  0.1766  0.1565
  158PC     H5A 7045   5.117   4.476   5.635  3.0281 -0.6297  1.3286
  158PC     H5B 7046   4.991   4.509   5.764  0.5614 -0.0125  1.7164
  158PC     H5C 7047   5.037   4.338   5.724 -1.0810  0.4879  0.3905
  158PC     O33 7048   5.550   4.450   5.893  0.0042 -0.6288 -0.1379
  158PC     O34 7049   5.585   4.685   5.798  0.0640 -0.1353  0.2909
  158PC     O21 7050   5.717   4.533   5.379 -0.2291  0.4887  0.2354
  158PC     C21 7051   5.623   4.454   5.337  0.5302 -0.5026 -0.0649
  158PC     O22 7052   5.508   4.460   5.367  0.4583  0.1631  0.0118
  159OL     C12 7053   5.688   4.361   5.237  0.2066  0.0888  1.2646
  159OL     H2R 7054   5.620   4.277   5.222  1.8671 -1.0479 -0.2772
  159OL     H2S 7055   5.782   4.325   5.278  0.5519 -1.6514 -0.8403
  159OL     C13 7056   5.714   4.431   5.101 -0.0840 -0.1862  0.6460
  159OL     H3R 7057   5.744   4.356   5.028 -1.9109 -0.4812  0.1447
  159OL     H3S 7058   5.792   4.507   5.106 -0.1857 -0.0018 -0.3417
  159OL     C14 7059   5.581   4.495   5.052 -0.5312  0.5122  0.7095
  159OL     H4R 7060   5.561   4.583   5.112  0.1714  0.2322  1.3644
  159OL     H4S 7061   5.496   4.427   5.051  0.2428 -0.5449 -1.9558
  159OL     C15 7062   5.591   4.533   4.904 -0.4470 -0.2353 -0.1237
  159OL     H5R 7063   5.486   4.547   4.877 -1.1867 -1.3488  1.9677
  159OL     H5S 7064   5.614   4.439   4.854 -1.0460 -0.3914 -0.1097
  159OL     C16 7065   5.694   4.650   4.865  0.1466  0.2774  0.5092
  159OL     H6R 7066   5.792   4.630   4.909  0.8836 -0.9212 -1.5304
  159OL     H6S 7067   5.666   4.744   4.912 -0.6287  1.0373 -1.3457
  159OL     C17 7068   5.719   4.658   4.714 -0.7958  0.0986  0.2704
  159OL     H7R 7069   5.621   4.658   4.666 -0.4639 -0.9380 -0.4551
  159OL     H7S 7070   5.759   4.557   4.702 -3.1837 -0.9524  0.6171
  159OL     C18 7071   5.814   4.775   4.675  0.2180 -0.4442 -0.2400
  159OL     H8R 7072   5.913   4.755   4.718  0.8099 -1.4085 -1.9648
  159OL     H8S 7073   5.777   4.863   4.728 -0.8288  1.4363 -3.7867
  159OL     C19 7074   5.821   4.801   4.528 -0.9896 -0.1138 -0.1710
  159OL     H9R 7075   5.847   4.723   4.457  4.3085  2.6049 -1.7502
  159OL    C110 7076   5.793   4.914   4.469  0.2279 -0.1774 -0.0278
  159OL    H10R 7077   5.805   4.915   4.361  0.9456 -1.7377  0.0202
  159OL    C111 7078   5.763   5.047   4.531  0.1753  0.4215 -0.4075
  159OL    H11R 7079   5.840   5.114   4.492 -0.7025  1.2647 -0.7350
  159OL    H11S 7080   5.769   5.041   4.640 -1.0889 -3.7236 -0.4160
  159OL    C112 7081   5.621   5.089   4.490 -0.1860  0.2926  0.6514
  159OL    H12R 7082   5.544   5.018   4.520  0.3557 -0.0112  1.3628
  159OL    H12S 7083   5.615   5.104   4.382  0.0105 -0.3700  0.5451
  159OL    C113 7084   5.570   5.219   4.547  0.0077  0.4358 -0.0732
  159OL    H13R 7085   5.544   5.207   4.653 -0.2074  0.9894 -0.0616
  159OL    H13S 7086   5.476   5.245   4.497 -0.5726 -0.8259  0.2940
  159OL    C114 7087   5.660   5.344   4.534 -0.0176  0.4292 -0.0404
  159OL    H14R 7088   5.751   5.327   4.593  0.1251  2.0494  0.2628
  159OL    H14S 7089   5.607   5.423   4.587 -1.5152  0.0723 -0.9597
  159OL    C115 7090   5.704   5.380   4.392  0.2692 -0.0138  0.7619
  159OL    H15R 7091   5.616   5.365   4.328 -1.0867 -3.6087  3.1645
  159OL    H15S 7092   5.777   5.307   4.357  0.8915  1.0182 -0.1957
  159OL    C116 7093   5.766   5.516   4.366  0.2508  0.3532  0.6942
  159OL    H16R 7094   5.862   5.517   4.419  1.0348 -1.0978 -0.6045
  159OL    H16S 7095   5.699   5.588   4.413 -1.2367  0.1772 -1.0555
  159OL    C117 7096   5.797   5.554   4.220 -0.5865  0.1878 -0.7486
  159OL    H17R 7097   5.860   5.483   4.165 -0.2984  1.8887 -2.7590
  159OL    H17S 7098   5.865   5.638   4.238 -3.5616  2.3681  1.4365
  159OL    C118 7099   5.677   5.619   4.150 -0.2521  0.1521 -0.1937
  159OL    H18R 7100   5.623   5.684   4.219 -2.0970  0.0432 -1.4590
  159OL    H18S 7101   5.613   5.536   4.118 -2.0830  2.1744 -2.1856
  159OL    H18T 7102   5.701   5.668   4.055  1.5771 -1.0007 -0.3804
  160PA    C116 7103   0.626   0.887   3.910  0.3219 -0.1699  0.0146
  160PA    H16R 7104   0.683   0.872   3.817 -1.7970 -1.6498 -1.1269
  160PA    H16S 7105   0.691   0.872   3.997  2.7996  1.3305 -1.4278
  160PA    H16T 7106   0.552   0.807   3.916 -0.9550  1.0239  0.7320
  160PA    C115 7107   0.548   1.020   3.897  0.1903 -0.4348 -0.1041
  160PA    H15R 7108   0.617   1.099   3.866 -0.3602  0.8624  1.7944
  160PA    H15S 7109   0.462   1.009   3.830 -0.4489  1.1063  0.4127
  160PA    C114 7110   0.488   1.077   4.034 -0.0658  0.0139  0.0431
  160PA    H14R 7111   0.438   0.993   4.082  0.8884 -0.5520  0.0829
  160PA    H14S 7112   0.567   1.108   4.103  0.0512  2.5171 -1.1157
  160PA    C113 7113   0.396   1.197   4.008  0.2252 -0.3208  0.3506
  160PA    H13R 7114   0.331   1.183   3.921 -1.1231 -0.1085  1.3008
  160PA    H13S 7115   0.466   1.273   3.972  0.4976 -1.3210 -1.3473
  160PA    C112 7116   0.331   1.253   4.135  0.1892  0.3808  0.6407
  160PA    H12R 7117   0.410   1.266   4.208  1.6594  0.1825 -0.8501
  160PA    H12S 7118   0.287   1.351   4.114  0.9975  0.5898 -0.1354
  160PA    C111 7119   0.231   1.148   4.183  0.5918 -0.7955 -0.5216
  160PA    H11R 7120   0.160   1.108   4.111 -0.7107  1.0896 -0.3455
  160PA    H11S 7121   0.287   1.061   4.219 -1.1033 -2.2567 -1.2898
  160PA    C110 7122   0.155   1.201   4.308 -0.1477 -0.1751  0.2294
  160PA    H10R 7123   0.224   1.252   4.375 -1.0973 -0.7358  1.6902
  160PA    H10S 7124   0.072   1.264   4.276  0.5907  2.0736  2.4299
  160PA     C19 7125   0.099   1.078   4.385 -0.2301  0.4522  0.3099
  160PA     H9R 7126  -0.005   1.064   4.356  0.2574  0.6237 -1.6929
  160PA     H9S 7127   0.158   0.988   4.365 -1.2376 -0.1635  0.0694
  160PA     C18 7128   0.109   1.116   4.538 -0.4673  1.0488  0.0051
  160PA     H8R 7129   0.211   1.135   4.572  0.5307 -1.8753 -1.1094
  160PA     H8S 7130   0.046   1.201   4.567  0.1290  2.2572 -2.0228
  160PA     C17 7131   0.077   0.989   4.627  0.3087 -0.4737 -0.5439
  160PA     H7R 7132  -0.027   0.957   4.632 -0.0586  0.6822 -0.3016
  160PA     H7S 7133   0.125   0.905   4.576  1.0143 -0.8009  0.6200
  160PA     C16 7134   0.127   0.992   4.773  0.0480 -0.0730 -0.4230
  160PA     H6R 7135   0.068   0.916   4.824 -0.6063  1.5615  1.3771
  160PA     H6S 7136   0.227   0.950   4.762 -0.5815 -2.1109  1.1672
  160PA     C15 7137   0.129   1.131   4.843  0.2816 -0.2214 -0.4005
  160PA     H5R 7138   0.217   1.190   4.816 -0.0892  2.0644  2.7965
  160PA     H5S 7139   0.046   1.186   4.797 -0.6437 -1.5836 -0.4015
  160PA     C14 7140   0.114   1.121   4.993 -0.5263 -0.0844  0.9499
  160PA     H4R 7141   0.102   1.221   5.034 -2.6827  0.5486 -1.0560
  160PA     H4S 7142   0.029   1.061   5.026  0.3416 -0.9506  1.6630
  160PA     C13 7143   0.234   1.054   5.061  1.0942 -0.5467  0.4229
  160PA     H3R 7144   0.249   0.959   5.008  3.5805  0.2289 -0.4404
  160PA     H3S 7145   0.329   1.104   5.039  0.1346  0.7636 -0.9030
  160PA     C12 7146   0.220   1.050   5.215  0.2097  0.7148 -0.3932
  160PA     H2R 7147   0.317   1.033   5.263 -0.2603  0.3290  0.4416
  160PA     H2S 7148   0.185   1.141   5.264  1.8012  0.7176  0.8379
  161PC     C11 7149   0.129   0.933   5.259 -0.6662 -0.6180  0.0637
  161PC     O12 7150   0.090   0.849   5.185  0.2577 -0.1463  0.4472
  161PC     O11 7151   0.096   0.946   5.389 -0.0033 -0.4763  0.0965
  161PC      C1 7152   0.032   0.828   5.458  0.1437 -0.1222  0.7615
  161PC      HR 7153  -0.020   0.866   5.546  0.2871 -0.0923  0.8353
  161PC      HS 7154  -0.035   0.781   5.386  0.8441 -0.2558  0.1834
  161PC      C2 7155   0.136   0.717   5.500  0.2861  0.2018 -0.0072
  161PC      HX 7156   0.081   0.641   5.556  2.2120  0.2829  2.1585
  161PC      C3 7157   0.224   0.781   5.608 -0.1439  0.5474 -0.1691
  161PC      HA 7158   0.316   0.813   5.559 -0.3072  0.9164 -0.2301
  161PC      HB 7159   0.169   0.860   5.658 -2.3584 -0.1554 -1.3902
  161PC     O31 7160   0.256   0.677   5.698  0.7297 -0.0916 -0.2235
  161PC     P31 7161   0.256   0.686   5.858  0.2011  0.1186  0.4513
  161PC     O32 7162   0.111   0.633   5.882 -0.1799  0.5100 -0.5797
  161PC     C31 7163   0.080   0.494   5.893  0.3055 -0.0659  0.6519
  161PC     H1A 7164   0.144   0.451   5.971  1.1932  0.7070  0.3658
  161PC     H1B 7165  -0.016   0.480   5.943  0.8919  1.2656  2.2834
  161PC     C32 7166   0.101   0.424   5.754  0.2823  0.0638 -0.5678
  161PC     H2A 7167   0.059   0.483   5.673  1.7655  0.4531 -1.0759
  161PC     H2B 7168   0.209   0.419   5.740  0.5689  0.7436  1.1940
  161PC     N31 7169   0.049   0.286   5.743  0.5855 -0.2073  0.5304
  161PC     C33 7170  -0.100   0.282   5.743 -0.3903  0.1213 -0.1349
  161PC     H3A 7171  -0.124   0.309   5.847  1.2991  0.4864  0.1870
  161PC     H3B 7172  -0.139   0.359   5.676 -0.5772 -0.6216 -0.8939
  161PC     H3C 7173  -0.138   0.183   5.717  0.8518 -0.6819  0.9896
  161PC     C34 7174   0.095   0.230   5.615  0.0263  0.5310 -0.0917
  161PC     H4A 7175   0.062   0.293   5.532  0.9647 -0.3189 -1.1365
  161PC     H4B 7176   0.204   0.239   5.621  0.1094 -0.0217 -0.6329
  161PC     H4C 7177   0.062   0.126   5.609  0.9972  0.0960  1.4308
  161PC     C35 7178   0.094   0.200   5.853 -0.2899  0.2864  0.1835
  161PC     H5A 7179   0.044   0.221   5.948 -1.1950 -1.7229  0.2047
  161PC     H5B 7180   0.202   0.212   5.855 -0.4329  2.2714 -1.5194
  161PC     H5C 7181   0.061   0.101   5.822 -2.4844  0.8283  0.6083
  161PC     O33 7182   0.350   0.588   5.906 -0.2445  0.5267 -0.2640
  161PC     O34 7183   0.262   0.826   5.906  0.4668  0.3499 -0.1570
  161PC     O21 7184   0.211   0.665   5.391  0.4012 -0.1038  0.3292
  161PC     C21 7185   0.181   0.549   5.337  0.0766  0.2342 -0.4249
  161PC     O22 7186   0.085   0.480   5.379  0.1636  0.1694 -0.1558
  162OL     C12 7187   0.270   0.503   5.221 -0.1513 -0.1077 -0.3392
  162OL     H2R 7188   0.281   0.394   5.216  2.1002  0.0121  0.9917
  162OL     H2S 7189   0.369   0.540   5.245 -0.7297  0.8320  0.6861
  162OL     C13 7190   0.235   0.562   5.088 -0.2442 -0.7459  0.0816
  162OL     H3R 7191   0.241   0.669   5.105  0.8330 -0.9875  1.4000
  162OL     H3S 7192   0.134   0.529   5.062 -0.1433  1.1471 -3.2374
  162OL     C14 7193   0.317   0.526   4.966  0.2156 -0.1771 -0.0534
  162OL     H4R 7194   0.418   0.563   4.987 -0.2526  2.7152 -2.3305
  162OL     H4S 7195   0.285   0.583   4.879  2.6435 -1.6555 -2.0548
  162OL     C15 7196   0.323   0.378   4.921 -0.1660 -0.5200 -0.8445
  162OL     H5R 7197   0.221   0.346   4.897 -0.0255 -0.4998 -1.4910
  162OL     H5S 7198   0.355   0.312   5.002 -1.9422  1.2085  1.4256
  162OL     C16 7199   0.397   0.370   4.788 -0.9154  0.1895 -0.0556
  162OL     H6R 7200   0.500   0.404   4.799 -0.4956 -1.3380  1.1612
  162OL     H6S 7201   0.332   0.427   4.722 -2.1745  0.6721  1.5356
  162OL     C17 7202   0.399   0.223   4.742  0.4625  0.0613  0.5953
  162OL     H7R 7203   0.292   0.199   4.740  0.6652 -0.8583  0.0364
  162OL     H7S 7204   0.446   0.157   4.815 -0.1375  0.0496  0.9840
  162OL     C18 7205   0.439   0.191   4.597 -0.3167 -0.0200  0.3389
  162OL     H8R 7206   0.381   0.263   4.539 -0.6085  1.0572  1.9103
  162OL     H8S 7207   0.397   0.094   4.571  0.1354  0.0887 -0.8540
  162OL     C19 7208   0.587   0.192   4.567 -1.1316 -0.1180 -0.0312
  162OL     H9R 7209   0.648   0.143   4.642  0.1271  1.3127 -0.0584
  162OL    C110 7210   0.641   0.264   4.467 -0.2445 -0.4152  0.5741
  162OL    H10R 7211   0.748   0.263   4.448 -0.6995 -1.3634 -2.4806
  162OL    C111 7212   0.570   0.348   4.356  0.5607 -0.3417 -0.5851
  162OL    H11R 7213   0.618   0.445   4.339  0.9866 -0.6780 -1.3548
  162OL    H11S 7214   0.464   0.361   4.379  0.6610 -1.1808  0.4319
  162OL    C112 7215   0.574   0.274   4.226  0.0639 -0.2669  0.0386
  162OL    H12R 7216   0.540   0.176   4.260  0.4197 -0.0879  0.9268
  162OL    H12S 7217   0.678   0.258   4.196  0.3452  1.5816 -0.0616
  162OL    C113 7218   0.488   0.348   4.115  0.3680 -0.7020  0.3206
  162OL    H13R 7219   0.518   0.453   4.106 -2.1549  0.2176  1.8946
  162OL    H13S 7220   0.388   0.352   4.158  0.7114  2.3188  1.0493
  162OL    C114 7221   0.509   0.284   3.975  0.5229 -0.1088  1.0102
  162OL    H14R 7222   0.613   0.277   3.944 -0.6238  0.1808 -3.6055
  162OL    H14S 7223   0.457   0.338   3.896  0.6161 -0.3986  0.7531
  162OL    C115 7224   0.435   0.146   3.967 -0.5108 -0.1942 -0.2935
  162OL    H15R 7225   0.333   0.171   3.997 -0.1830  2.4254 -1.0749
  162OL    H15S 7226   0.487   0.075   4.032  0.3398 -0.0173 -0.7685
  162OL    C116 7227   0.448   0.093   3.821 -0.1396 -0.5895  0.9522
  162OL    H16R 7228   0.554   0.072   3.809 -0.3651 -3.4986  2.8765
  162OL    H16S 7229   0.401   0.161   3.750 -0.3250 -1.5724  0.1090
  162OL    C117 7230   0.375  -0.032   3.789  0.3195  0.5087  0.4109
  162OL    H17R 7231   0.271  -0.015   3.816  0.3064 -0.5024  1.0580
  162OL    H17S 7232   0.412  -0.112   3.853 -0.3779  0.3577  0.6356
  162OL    C118 7233   0.376  -0.078   3.644  0.5083 -0.4842 -0.1662
  162OL    H18R 7234   0.290  -0.137   3.612 -1.8611  2.7680 -0.2550
  162OL    H18S 7235   0.474  -0.101   3.600  2.1872  0.2274  2.8914
  162OL    H18T 7236   0.349   0.016   3.596  3.5837  0.6744  0.1188
  163PA    C116 7237   2.128   3.138   3.608 -0.0705  0.8586  0.1290
  163PA    H16R 7238   2.171   3.068   3.680 -1.5917  0.5523  0.7934
  163PA    H16S 7239   2.140   3.084   3.514  0.8447  0.9259  0.1974
  163PA    H16T 7240   2.025   3.137   3.646 -0.1007 -0.0622  0.0687
  163PA    C115 7241   2.186   3.282   3.608  0.7820  0.2800 -0.0918
  163PA    H15R 7242   2.286   3.275   3.567  1.3564 -0.4948  1.3742
  163PA    H15S 7243   2.124   3.341   3.541  2.1638  1.6087 -0.2477
  163PA    C114 7244   2.200   3.354   3.742 -0.0763 -0.3848 -0.9411
  163PA    H14R 7245   2.272   3.306   3.808 -2.1407  1.0463  2.6447
  163PA    H14S 7246   2.239   3.455   3.731 -4.5015  1.8081  0.6704
  163PA    C113 7247   2.072   3.358   3.830  0.0983  0.0002 -0.0941
  163PA    H13R 7248   1.983   3.388   3.774 -1.3379  0.4767  2.3048
  163PA    H13S 7249   2.045   3.260   3.872 -0.8967  0.1629 -0.3271
  163PA    C112 7250   2.082   3.464   3.947 -1.0472  0.2250 -0.0563
  163PA    H12R 7251   2.162   3.433   4.016 -1.4285 -1.1084 -0.1787
  163PA    H12S 7252   2.114   3.554   3.896 -2.9047  0.7532 -0.3525
  163PA    C111 7253   1.962   3.480   4.044 -0.3009 -0.1459  0.3423
  163PA    H11R 7254   1.987   3.569   4.103 -2.2470 -1.3203  3.1559
  163PA    H11S 7255   1.866   3.489   3.994 -0.6226 -0.4136  0.8970
  163PA    C110 7256   1.949   3.369   4.144 -0.5622 -0.3387  0.3250
  163PA    H10R 7257   1.916   3.283   4.085  1.2200  0.9623 -2.8311
  163PA    H10S 7258   2.044   3.331   4.182 -0.2835 -1.3009 -1.2336
  163PA     C19 7259   1.847   3.401   4.253  0.4023 -0.8142  0.4501
  163PA     H9R 7260   1.876   3.476   4.326  1.5062 -0.4762 -0.3022
  163PA     H9S 7261   1.758   3.435   4.198 -0.1506  1.0970  2.4154
  163PA     C18 7262   1.800   3.282   4.329 -0.0798 -0.6098 -0.4962
  163PA     H8R 7263   1.768   3.215   4.249 -2.7154 -0.6310  0.4822
  163PA     H8S 7264   1.884   3.235   4.380 -0.1396  1.2563  1.4324
  163PA     C17 7265   1.687   3.301   4.431 -0.2529  0.1027 -1.0860
  163PA     H7R 7266   1.593   3.345   4.397 -1.2814 -1.5208 -0.4480
  163PA     H7S 7267   1.665   3.199   4.460  1.1015 -0.0872 -0.6339
  163PA     C16 7268   1.750   3.375   4.551  0.8464  0.9105  0.3386
  163PA     H6R 7269   1.822   3.305   4.593 -1.3448 -1.9358 -0.3454
  163PA     H6S 7270   1.791   3.467   4.507  0.3806  0.3164 -1.4259
  163PA     C15 7271   1.659   3.419   4.672 -0.2824  0.5117 -0.0752
  163PA     H5R 7272   1.614   3.517   4.657  2.0964  1.2919 -2.8122
  163PA     H5S 7273   1.578   3.346   4.680 -0.1727  0.2844 -0.9864
  163PA     C14 7274   1.735   3.411   4.812  0.0236  0.1840 -0.4261
  163PA     H4R 7275   1.751   3.309   4.846  1.3890  0.9664  1.4751
  163PA     H4S 7276   1.833   3.459   4.807  1.4428 -2.0240  2.8850
  163PA     C13 7277   1.657   3.477   4.929 -0.2527 -0.2385 -0.4536
  163PA     H3R 7278   1.716   3.446   5.015 -0.6715 -0.2543 -0.1689
  163PA     H3S 7279   1.658   3.585   4.915 -0.7548 -0.1435  0.2139
  163PA     C12 7280   1.509   3.435   4.942 -0.7295  0.3306  0.1418
  163PA     H2R 7281   1.440   3.493   4.881 -3.1148  0.7416  3.0023
  163PA     H2S 7282   1.492   3.333   4.906 -2.7161  0.2299  1.2181
  164PC     C11 7283   1.467   3.442   5.087  0.1164 -0.4088 -0.0156
  164PC     O12 7284   1.492   3.354   5.171  0.1488  0.0732  0.2075
  164PC     O11 7285   1.407   3.555   5.119 -0.0271 -0.9465  0.6837
  164PC      C1 7286   1.368   3.578   5.255 -0.8743  0.1201  0.5814
  164PC      HR 7287   1.308   3.494   5.289  0.5173 -1.1613 -0.0347
  164PC      HS 7288   1.460   3.587   5.314 -0.4390 -2.1905  0.3343
  164PC      C2 7289   1.280   3.707   5.254  0.2320 -0.2861  0.0546
  164PC      HX 7290   1.314   3.786   5.187  0.4990 -1.4592 -1.2289
  164PC      C3 7291   1.276   3.768   5.394  0.7790 -0.1363 -0.3968
  164PC      HA 7292   1.363   3.829   5.418  0.9256 -0.8307  0.9819
  164PC      HB 7293   1.188   3.831   5.407  1.6784  1.1580 -0.4046
  164PC     O31 7294   1.273   3.659   5.491 -0.5601 -0.8582 -0.0521
  164PC     P31 7295   1.192   3.673   5.627  0.2702 -0.4223  0.2384
  164PC     O32 7296   1.035   3.650   5.582 -0.0167  0.6041 -0.8374
  164PC     C31 7297   0.933   3.749   5.572 -0.2248 -0.7303  0.5133
  164PC     H1A 7298   0.961   3.822   5.496  0.2095 -1.0832  0.3300
  164PC     H1B 7299   0.839   3.708   5.534 -0.5915  1.0294 -0.5761
  164PC     C32 7300   0.908   3.807   5.717 -0.8050 -0.2320  0.1839
  164PC     H2A 7301   0.997   3.860   5.752 -0.9667 -0.7792  1.4655
  164PC     H2B 7302   0.830   3.882   5.704 -0.1344  0.4124 -0.2038
  164PC     N31 7303   0.861   3.720   5.830 -0.1923  0.2643 -0.5483
  164PC     C33 7304   0.886   3.776   5.964 -0.1608  0.2074 -0.1023
  164PC     H3A 7305   0.823   3.716   6.029 -1.0736  1.1317 -0.1198
  164PC     H3B 7306   0.993   3.779   5.989  0.2067  0.9465 -1.6584
  164PC     H3C 7307   0.851   3.879   5.959 -2.1628 -0.3433  1.3738
  164PC     C34 7308   0.715   3.686   5.814  0.0907  0.2798 -0.7156
  164PC     H4A 7309   0.669   3.783   5.837 -0.1199 -0.0973  0.5287
  164PC     H4B 7310   0.686   3.647   5.717 -1.3358  0.5469 -0.4255
  164PC     H4C 7311   0.683   3.620   5.895  0.3946 -1.4902 -2.0079
  164PC     C35 7312   0.931   3.592   5.835  0.9105 -0.3221 -0.2571
  164PC     H5A 7313   0.906   3.518   5.911 -0.2546 -0.7221 -1.0029
  164PC     H5B 7314   1.036   3.621   5.847  1.0487  0.1210 -2.1491
  164PC     H5C 7315   0.922   3.544   5.738 -0.9133 -2.4067  0.8756
  164PC     O33 7316   1.235   3.563   5.721 -0.6787  0.1529  0.6390
  164PC     O34 7317   1.202   3.813   5.675  0.6428 -0.2422 -0.2601
  164PC     O21 7318   1.145   3.667   5.214  0.4344  0.3426  0.0717
  164PC     C21 7319   1.105   3.704   5.090  0.0190  0.2675 -0.4707
  164PC     O22 7320   1.176   3.759   5.008 -0.1230  0.0518  0.0713
  165OL     C12 7321   0.974   3.640   5.051  0.1579 -0.2115  0.0162
  165OL     H2R 7322   0.897   3.717   5.062  0.3099 -0.2956  2.0156
  165OL     H2S 7323   0.952   3.566   5.128 -0.0695  1.1183  1.2784
  165OL     C13 7324   0.976   3.582   4.907  0.0679  0.7978 -0.1384
  165OL     H3R 7325   1.038   3.493   4.895 -1.4086 -0.0122 -2.5750
  165OL     H3S 7326   1.029   3.655   4.845 -2.4178  1.7635 -1.2831
  165OL     C14 7327   0.843   3.560   4.838  0.1980 -0.3258  0.2991
  165OL     H4R 7328   0.787   3.653   4.848  0.7794 -0.1067  1.6977
  165OL     H4S 7329   0.791   3.480   4.893  0.8708 -0.8717  0.1544
  165OL     C15 7330   0.852   3.530   4.686  0.4515 -0.2445 -0.5453
  165OL     H5R 7331   0.904   3.438   4.659 -3.3925 -3.2008  1.2014
  165OL     H5S 7332   0.891   3.611   4.624 -4.3118  2.3650 -0.6170
  165OL     C16 7333   0.709   3.507   4.619  0.3214  0.0513  0.0650
  165OL     H6R 7334   0.655   3.601   4.631 -0.9713 -0.5066 -1.0376
  165OL     H6S 7335   0.654   3.431   4.674 -0.3715 -0.0624 -0.7575
  165OL     C17 7336   0.721   3.493   4.466  0.4042 -0.2329 -0.1410
  165OL     H7R 7337   0.755   3.390   4.449 -1.7438 -0.8146 -1.3270
  165OL     H7S 7338   0.784   3.572   4.424  0.4096 -0.3348 -0.3259
  165OL     C18 7339   0.589   3.500   4.386  0.0672 -0.2311 -0.3619
  165OL     H8R 7340   0.545   3.598   4.401 -1.9165 -0.9409 -1.1734
  165OL     H8S 7341   0.511   3.437   4.429 -1.1176  1.3729 -0.0712
  165OL     C19 7342   0.609   3.480   4.238 -0.5719  0.0205  0.3177
  165OL     H9R 7343   0.615   3.381   4.193 -2.5729  0.5074 -1.1830
  165OL    C110 7344   0.637   3.569   4.146  0.0028 -0.1651 -0.5033
  165OL    H10R 7345   0.667   3.530   4.049  0.7608  0.2780 -0.4586
  165OL    C111 7346   0.648   3.717   4.155  0.4661 -0.8535  0.0079
  165OL    H11R 7347   0.691   3.755   4.062 -0.8225  3.3295  0.8921
  165OL    H11S 7348   0.714   3.737   4.239  1.1305 -2.0521 -0.2122
  165OL    C112 7349   0.506   3.785   4.176 -0.6487  0.0946 -0.6854
  165OL    H12R 7350   0.474   3.757   4.277 -0.9966 -0.2333 -0.8853
  165OL    H12S 7351   0.447   3.738   4.097 -0.2920  0.5873 -1.2582
  165OL    C113 7352   0.491   3.934   4.154  0.5589 -0.0714  0.4011
  165OL    H13R 7353   0.386   3.963   4.147  0.6104 -0.1507 -1.2724
  165OL    H13S 7354   0.527   3.944   4.051 -1.7985  0.9479 -0.3702
  165OL    C114 7355   0.568   4.026   4.245  0.1955  0.5471 -0.0131
  165OL    H14R 7356   0.559   4.127   4.204 -0.5724  0.6597  0.4056
  165OL    H14S 7357   0.675   4.006   4.246  0.7093  3.0144  0.2000
  165OL    C115 7358   0.514   4.009   4.386 -0.5074  0.0028 -0.1445
  165OL    H15R 7359   0.557   3.917   4.427  0.2842  0.0674 -0.7829
  165OL    H15S 7360   0.406   4.000   4.384 -0.4444 -0.7298 -0.8186
  165OL    C116 7361   0.545   4.139   4.458  0.2634 -0.5559 -0.0180
  165OL    H16R 7362   0.487   4.216   4.409  1.8978  0.2838 -0.7107
  165OL    H16S 7363   0.647   4.172   4.439  0.1744  0.0272  0.4864
  165OL    C117 7364   0.530   4.145   4.614  0.7126  0.2702 -0.3549
  165OL    H17R 7365   0.604   4.076   4.656  2.2882  0.9984 -1.8367
  165OL    H17S 7366   0.432   4.103   4.636  0.8564 -0.9476 -1.8571
  165OL    C118 7367   0.536   4.292   4.657  0.1441  0.0376  0.0832
  165OL    H18R 7368   0.635   4.335   4.641 -0.3136  1.4150  0.8425
  165OL    H18S 7369   0.526   4.293   4.766 -0.7667  0.9148  0.0015
  165OL    H18T 7370   0.457   4.351   4.610 -0.5394 -0.4188  0.6455
  166PA    C116 7371   4.709   2.592   3.995  0.4627 -0.2522  0.2087
  166PA    H16R 7372   4.629   2.517   3.994 -1.8380  2.0333 -0.2005
  166PA    H16S 7373   4.796   2.571   3.933  1.2626 -1.8347  1.7720
  166PA    H16T 7374   4.669   2.678   3.941  0.7494 -1.0222 -1.2818
  166PA    C115 7375   4.751   2.632   4.136  0.7620  0.3637  0.4582
  166PA    H15R 7376   4.781   2.545   4.195  1.9682  0.0647 -0.5579
  166PA    H15S 7377   4.831   2.706   4.122  0.6462  0.7535  1.6797
  166PA    C114 7378   4.627   2.709   4.204 -0.7021  0.0119 -0.4044
  166PA    H14R 7379   4.599   2.786   4.132  0.0276  0.2373 -0.4520
  166PA    H14S 7380   4.539   2.644   4.212 -0.5345 -0.2544 -0.6924
  166PA    C113 7381   4.667   2.768   4.342 -0.3151 -0.2952  0.2317
  166PA    H13R 7382   4.757   2.828   4.327  0.7377 -1.2313  2.3290
  166PA    H13S 7383   4.585   2.828   4.382  0.0731 -1.0349  2.2959
  166PA    C112 7384   4.701   2.671   4.463 -0.3197 -0.0829  0.2321
  166PA    H12R 7385   4.623   2.595   4.477  0.3438 -0.7292  0.4724
  166PA    H12S 7386   4.794   2.619   4.438 -0.6043 -2.4038  3.3075
  166PA    C111 7387   4.724   2.747   4.595 -0.3101  0.1650 -0.3105
  166PA    H11R 7388   4.806   2.817   4.577 -0.3103  0.1430 -0.3928
  166PA    H11S 7389   4.637   2.805   4.626  0.4953  1.1299  0.2073
  166PA    C110 7390   4.769   2.649   4.709 -0.2177 -0.1080 -0.1244
  166PA    H10R 7391   4.696   2.568   4.719 -2.1443  1.4765 -0.6025
  166PA    H10S 7392   4.855   2.589   4.682 -1.0794 -0.3761 -2.4584
  166PA     C19 7393   4.796   2.731   4.838  0.0454  0.1481  1.3483
  166PA     H9R 7394   4.886   2.791   4.822  0.4731 -1.3728 -3.1271
  166PA     H9S 7395   4.716   2.802   4.860 -1.2369  0.0573 -2.4463
  166PA     C18 7396   4.812   2.637   4.954 -0.8318  0.0368 -0.5203
  166PA     H8R 7397   4.731   2.565   4.964  1.4299 -2.6238 -0.1899
  166PA     H8S 7398   4.896   2.572   4.928 -0.7816 -0.5381  0.9732
  166PA     C17 7399   4.854   2.702   5.087  0.4423  0.8139  0.6316
  166PA     H7R 7400   4.952   2.749   5.092  0.3806  1.0022  0.1753
  166PA     H7S 7401   4.784   2.784   5.104  0.4784  1.1372 -0.6445
  166PA     C16 7402   4.847   2.616   5.206  0.5055  0.1429 -1.3507
  166PA     H6R 7403   4.872   2.676   5.293  0.1346  0.4531 -1.4519
  166PA     H6S 7404   4.746   2.575   5.209  0.6761 -0.2898 -1.4266
  166PA     C15 7405   4.947   2.497   5.191  0.1080  0.0606 -0.3776
  166PA     H5R 7406   4.920   2.449   5.097 -4.6759  0.7307  0.4133
  166PA     H5S 7407   5.048   2.533   5.171 -0.0020  1.0137  0.6514
  166PA     C14 7408   4.960   2.394   5.307  0.5791 -0.5672 -0.3504
  166PA     H4R 7409   5.020   2.311   5.271  1.0038 -0.6616  0.5519
  166PA     H4S 7410   5.014   2.447   5.386 -1.4885  0.7650  0.2620
  166PA     C13 7411   4.826   2.354   5.361  0.4612  0.0357 -0.7207
  166PA     H3R 7412   4.794   2.433   5.429 -2.2431 -2.3584  0.9923
  166PA     H3S 7413   4.758   2.353   5.275  0.7705  1.4746 -1.0090
  166PA     C12 7414   4.813   2.220   5.432  0.3194 -0.1796 -0.6470
  166PA     H2R 7415   4.815   2.149   5.348 -0.9848 -0.5218 -0.4035
  166PA     H2S 7416   4.896   2.190   5.497  1.1390 -0.0454 -1.6009
  167PC     C11 7417   4.681   2.187   5.500  0.1582  0.6831 -0.3514
  167PC     O12 7418   4.600   2.120   5.442  0.4160  0.5108 -0.0837
  167PC     O11 7419   4.675   2.231   5.630 -0.0735  0.2800 -0.4449
  167PC      C1 7420   4.549   2.200   5.701 -0.2271 -0.0557 -0.2356
  167PC      HR 7421   4.555   2.270   5.784 -0.4683 -1.2184  0.7982
  167PC      HS 7422   4.459   2.221   5.642  0.7062  3.0675 -0.7206
  167PC      C2 7423   4.551   2.061   5.767 -0.4407  0.9242 -0.0926
  167PC      HX 7424   4.461   2.049   5.828 -0.2508 -1.1667 -0.1498
  167PC      C3 7425   4.673   2.044   5.860 -0.8125  0.4078 -0.2071
  167PC      HA 7426   4.715   1.947   5.834 -2.3506 -0.2956 -0.1958
  167PC      HB 7427   4.756   2.114   5.850  0.1355 -0.8845 -2.1067
  167PC     O31 7428   4.624   2.047   5.991 -0.0100  0.2334 -0.0496
  167PC     P31 7429   4.701   1.988   6.117  0.0772 -0.1184 -0.0219
  167PC     O32 7430   4.675   1.836   6.075 -0.1952 -0.0448  0.4273
  167PC     C31 7431   4.534   1.788   6.059 -0.0895 -0.0599 -0.3682
  167PC     H1A 7432   4.469   1.867   6.020 -0.4390  0.4155  1.1061
  167PC     H1B 7433   4.529   1.700   5.995  0.8047  0.2462 -0.8795
  167PC     C32 7434   4.471   1.754   6.197  0.2816 -0.3019  0.2108
  167PC     H2A 7435   4.490   1.833   6.271 -1.2034  0.5257 -0.2449
  167PC     H2B 7436   4.364   1.738   6.187 -0.0050  0.0346  2.1336
  167PC     N31 7437   4.510   1.631   6.265 -0.2387 -0.8755  0.3638
  167PC     C33 7438   4.654   1.625   6.294  0.4681  0.0799 -0.2135
  167PC     H3A 7439   4.670   1.721   6.345 -1.9817 -0.2574  1.3943
  167PC     H3B 7440   4.668   1.539   6.360  0.3083  1.2218  1.3887
  167PC     H3C 7441   4.702   1.630   6.197 -0.2842  0.0712 -0.5950
  167PC     C34 7442   4.445   1.621   6.399 -0.9805  0.2076  0.2268
  167PC     H4A 7443   4.459   1.717   6.449 -0.1008 -0.3358  1.0714
  167PC     H4B 7444   4.339   1.607   6.380 -1.1389  1.2446  0.3173
  167PC     H4C 7445   4.481   1.544   6.467 -0.7595  0.0189 -0.1020
  167PC     C35 7446   4.466   1.515   6.178 -0.0293  0.0657 -0.0165
  167PC     H5A 7447   4.484   1.424   6.237 -0.3582 -0.5034 -0.7692
  167PC     H5B 7448   4.524   1.504   6.087  1.1419 -0.2706  0.7456
  167PC     H5C 7449   4.358   1.509   6.160 -0.2493 -0.7389  1.3706
  167PC     O33 7450   4.848   2.017   6.104 -0.3624  0.2679  0.3288
  167PC     O34 7451   4.626   2.026   6.242  0.0515  0.1179  0.1613
  167PC     O21 7452   4.555   1.951   5.671  0.2420  0.4872  0.3526
  167PC     C21 7453   4.446   1.885   5.624 -0.1932  0.0977  0.4955
  167PC     O22 7454   4.337   1.882   5.681  0.5655 -0.4517  0.3686
  168OL     C12 7455   4.475   1.808   5.500 -0.0596  0.0222 -0.6046
  168OL     H2R 7456   4.546   1.727   5.520  0.4489 -0.0045 -2.3561
  168OL     H2S 7457   4.518   1.880   5.429 -0.5038 -2.1117 -3.2099
  168OL     C13 7458   4.357   1.748   5.433  0.1995  0.8559 -0.3320
  168OL     H3R 7459   4.285   1.823   5.398  0.1913  1.9187  1.7921
  168OL     H3S 7460   4.307   1.688   5.510  1.7704  0.7173  0.6363
  168OL     C14 7461   4.406   1.647   5.331 -0.7269 -0.1499  0.3396
  168OL     H4R 7462   4.438   1.556   5.382  0.5236 -0.0266 -0.1950
  168OL     H4S 7463   4.485   1.682   5.265 -0.1400 -0.5090  0.8443
  168OL     C15 7464   4.277   1.612   5.254 -0.4176  0.5177 -0.0689
  168OL     H5R 7465   4.239   1.706   5.213  0.1280  0.1920 -1.3879
  168OL     H5S 7466   4.197   1.569   5.314 -0.0939  1.0868  0.7945
  168OL     C16 7467   4.299   1.514   5.136 -0.3216 -0.1829  0.3704
  168OL     H6R 7468   4.356   1.427   5.171 -0.4754 -0.3863  0.1233
  168OL     H6S 7469   4.348   1.563   5.052 -0.3386 -0.0952  0.4121
  168OL     C17 7470   4.160   1.457   5.088  0.5085 -0.9997  0.0560
  168OL     H7R 7471   4.104   1.533   5.034  3.8651  0.1924 -2.0827
  168OL     H7S 7472   4.104   1.424   5.176  0.2283  1.2904  0.8102
  168OL     C18 7473   4.201   1.329   5.009 -0.4230 -0.3339  0.0461
  168OL     H8R 7474   4.265   1.264   5.069 -2.0938 -2.1635 -0.0167
  168OL     H8S 7475   4.257   1.364   4.922 -0.6659  1.3962  0.5668
  168OL     C19 7476   4.075   1.265   4.953  0.2671  0.3792  0.7293
  168OL     H9R 7477   4.031   1.194   5.022 -0.2278  1.7640  1.9052
  168OL    C110 7478   4.028   1.270   4.827 -0.1919  0.3460 -1.0458
  168OL    H10R 7479   3.929   1.235   4.801 -1.6731  2.9461  0.6555
  168OL    C111 7480   4.079   1.356   4.712  0.8115 -0.2020  0.1565
  168OL    H11R 7481   4.168   1.319   4.661 -0.2536  0.4446 -2.3380
  168OL    H11S 7482   4.093   1.457   4.750 -1.0275 -0.6615  2.2544
  168OL    C112 7483   3.959   1.389   4.613 -0.4613 -0.3821 -0.0153
  168OL    H12R 7484   3.995   1.461   4.539  0.3371 -0.8791 -0.1130
  168OL    H12S 7485   3.875   1.431   4.669 -0.3920  0.4897 -0.5416
  168OL    C113 7486   3.911   1.270   4.539  0.3758 -0.0975  0.2296
  168OL    H13R 7487   3.872   1.198   4.611  0.0845  0.2397  0.4092
  168OL    H13S 7488   4.000   1.218   4.500  0.8400 -1.5037  2.9455
  168OL    C114 7489   3.813   1.295   4.420  0.3065  0.2433  0.1537
  168OL    H14R 7490   3.717   1.337   4.452  0.5036  0.7144  0.1436
  168OL    H14S 7491   3.788   1.198   4.378  1.4518  1.2348 -3.1320
  168OL    C115 7492   3.861   1.387   4.305 -0.5445  0.4199 -0.5800
  168OL    H15R 7493   3.854   1.487   4.348  1.4889 -0.0205  0.8898
  168OL    H15S 7494   3.786   1.395   4.225 -0.0858  1.1502 -0.9451
  168OL    C116 7495   3.992   1.363   4.241 -0.4439 -0.4801  0.6899
  168OL    H16R 7496   3.995   1.270   4.184 -2.0532  0.2199 -0.6349
  168OL    H16S 7497   4.077   1.360   4.309  0.4839 -0.3719 -0.4263
  168OL    C117 7498   4.026   1.469   4.130  0.0713  0.2107 -0.2834
  168OL    H17R 7499   4.031   1.570   4.170  2.0022  1.0680 -2.4931
  168OL    H17S 7500   3.958   1.468   4.044  0.2574  0.0652 -0.4297
  168OL    C118 7501   4.162   1.457   4.073  0.0543  0.1365 -0.3009
  168OL    H18R 7502   4.178   1.533   3.996  1.0055 -0.4531 -0.6932
  168OL    H18S 7503   4.184   1.360   4.029 -0.5689 -0.7704  1.3071
  168OL    H18T 7504   4.240   1.485   4.144  0.3106 -1.2586 -0.0067
  169PA    C116 7505  -1.236   3.152   3.995 -0.1606  0.6702 -0.5159
  169PA    H16R 7506  -1.302   3.103   3.922 -0.8602  1.9533 -0.7653
  169PA    H16S 7507  -1.169   3.219   3.941  0.6139  0.7337  0.5087
  169PA    H16T 7508  -1.299   3.222   4.050  0.7315  1.7296 -0.8179
  169PA    C115 7509  -1.160   3.049   4.083  0.6016  0.2864 -0.4608
  169PA    H15R 7510  -1.221   2.961   4.100  1.4842 -0.2322  0.0943
  169PA    H15S 7511  -1.065   3.029   4.033  0.0771  1.3439 -1.9492
  169PA    C114 7512  -1.126   3.105   4.227  0.3074 -0.0913  0.0941
  169PA    H14R 7513  -1.073   3.199   4.207  1.2968 -0.2193  1.9186
  169PA    H14S 7514  -1.213   3.125   4.289 -0.2372 -0.0959 -0.6573
  169PA    C113 7515  -1.025   3.013   4.293  0.6801 -0.2054  0.5725
  169PA    H13R 7516  -1.069   2.914   4.310  1.2819 -0.6778 -0.5323
  169PA    H13S 7517  -0.947   3.007   4.217  1.5762  1.2612  1.3186
  169PA    C112 7518  -0.968   3.073   4.428 -0.5859  0.5400 -0.4199
  169PA    H12R 7519  -0.869   3.030   4.444 -1.4975 -1.0734  1.2406
  169PA    H12S 7520  -0.967   3.181   4.416  0.0819  0.5452 -0.3535
  169PA    C111 7521  -1.067   3.035   4.536 -0.4265 -0.2128 -0.0837
  169PA    H11R 7522  -1.164   3.078   4.512 -0.3490  0.7269  1.1814
  169PA    H11S 7523  -1.069   2.928   4.556  3.7120 -0.5768 -0.7768
  169PA    C110 7524  -1.022   3.110   4.661 -0.6123 -0.2265  0.1888
  169PA    H10R 7525  -0.918   3.083   4.675 -0.4913  0.1997  0.1323
  169PA    H10S 7526  -1.019   3.217   4.641 -0.1520  0.5794  3.8399
  169PA     C19 7527  -1.110   3.082   4.782 -0.2536  0.2451 -0.3474
  169PA     H9R 7528  -1.182   3.164   4.782  1.1236  1.5024 -0.1397
  169PA     H9S 7529  -1.155   2.982   4.783 -0.4738  0.3414 -0.4409
  169PA     C18 7530  -1.040   3.092   4.913 -0.3202  0.9709 -0.2521
  169PA     H8R 7531  -0.936   3.064   4.893 -0.1153  2.1424 -0.9012
  169PA     H8S 7532  -1.038   3.194   4.953 -0.8152  0.4159  1.2677
  169PA     C17 7533  -1.120   3.005   5.020 -0.4661 -0.9521  0.8218
  169PA     H7R 7534  -1.228   3.020   5.026 -0.9485 -2.4985 -2.0453
  169PA     H7S 7535  -1.105   2.898   5.003  0.0464 -0.4090 -3.0612
  169PA     C16 7536  -1.081   3.040   5.162 -0.6248 -0.3216 -0.1342
  169PA     H6R 7537  -0.972   3.039   5.173 -0.7983  1.7145  3.7182
  169PA     H6S 7538  -1.093   3.149   5.169  1.1093 -0.0921 -0.2355
  169PA     C15 7539  -1.146   2.966   5.277 -0.5181  0.5058  0.0849
  169PA     H5R 7540  -1.253   2.989   5.280 -0.4932  0.6911 -0.3630
  169PA     H5S 7541  -1.130   2.859   5.258  1.7702  0.7587  0.3156
  169PA     C14 7542  -1.076   2.999   5.418  0.5866 -0.2554 -0.6722
  169PA     H4R 7543  -0.973   2.965   5.415  0.7232  0.1301 -0.3565
  169PA     H4S 7544  -1.084   3.108   5.419  1.4940 -0.1476 -1.8618
  169PA     C13 7545  -1.148   2.942   5.536 -0.0407  0.5050  0.2437
  169PA     H3R 7546  -1.085   2.964   5.623  1.2381 -0.1507 -0.4788
  169PA     H3S 7547  -1.241   2.997   5.553  0.3714  1.1632  0.4351
  169PA     C12 7548  -1.166   2.786   5.527 -0.9108  0.6679  0.4127
  169PA     H2R 7549  -1.243   2.769   5.450  1.4295 -0.5046 -1.8215
  169PA     H2S 7550  -1.077   2.743   5.480  0.2313  2.4326  0.8825
  170PC     C11 7551  -1.206   2.711   5.654 -0.1984  0.1262  0.2337
  170PC     O12 7552  -1.184   2.759   5.762 -0.0194 -0.0468  0.1307
  170PC     O11 7553  -1.284   2.600   5.634 -0.7840 -0.1232 -0.2905
  170PC      C1 7554  -1.346   2.537   5.748  0.9569  0.0502 -0.0617
  170PC      HR 7555  -1.389   2.441   5.718 -0.0066  0.8851 -1.5086
  170PC      HS 7556  -1.271   2.517   5.824  1.4615  1.3648 -0.1850
  170PC      C2 7557  -1.466   2.623   5.801  0.6610  0.2871 -0.5368
  170PC      HX 7558  -1.437   2.726   5.825  1.0181  0.0472  0.0878
  170PC      C3 7559  -1.509   2.564   5.933  0.0133 -0.2547 -0.3138
  170PC      HA 7560  -1.558   2.467   5.923  0.7993 -0.6028 -0.8943
  170PC      HB 7561  -1.421   2.552   5.997  0.1486 -2.3021 -0.8040
  170PC     O31 7562  -1.611   2.655   5.985  0.4625  0.6185  0.2967
  170PC     P31 7563  -1.588   2.756   6.105 -0.0327 -0.2281  0.1811
  170PC     O32 7564  -1.630   2.687   6.236  0.3912  0.2364  0.3385
  170PC     C31 7565  -1.770   2.640   6.258  0.0850  0.1456  0.6727
  170PC     H1A 7566  -1.827   2.725   6.295 -0.0843 -0.5928  2.1976
  170PC     H1B 7567  -1.809   2.586   6.172 -2.6601  1.8445  0.7519
  170PC     C32 7568  -1.754   2.545   6.383 -0.2431 -0.1311 -0.3578
  170PC     H2A 7569  -1.695   2.459   6.349 -0.6885 -1.0191  1.0371
  170PC     H2B 7570  -1.708   2.596   6.468 -3.0325  1.2940  0.3956
  170PC     N31 7571  -1.882   2.486   6.448 -0.2896  0.2340 -0.5980
  170PC     C33 7572  -1.958   2.411   6.348 -0.8795 -0.1056  0.3680
  170PC     H3A 7573  -1.913   2.320   6.307 -0.4645 -0.0739  0.7457
  170PC     H3B 7574  -2.029   2.365   6.417  1.9631 -1.8051  2.3497
  170PC     H3C 7575  -2.003   2.471   6.268  0.0740  0.5110  0.2835
  170PC     C34 7576  -1.854   2.392   6.566 -0.2269  0.2066 -0.2309
  170PC     H4A 7577  -1.942   2.386   6.630  1.3087 -0.2693  1.9389
  170PC     H4B 7578  -1.825   2.293   6.530 -0.3190  0.3795 -0.8006
  170PC     H4C 7579  -1.785   2.442   6.634  1.5370 -2.1945 -0.1127
  170PC     C35 7580  -1.967   2.597   6.506  0.0153  0.0635  0.1047
  170PC     H5A 7581  -1.909   2.648   6.583  0.6431  0.1080 -0.3990
  170PC     H5B 7582  -2.068   2.568   6.539 -0.1100  1.6502  1.2104
  170PC     H5C 7583  -1.984   2.668   6.425  1.6475 -0.2095 -0.5166
  170PC     O33 7584  -1.444   2.786   6.108 -0.1017 -0.1670 -0.2507
  170PC     O34 7585  -1.675   2.869   6.073  0.3395  0.0806 -0.0485
  170PC     O21 7586  -1.581   2.609   5.718 -0.4852  0.0886  0.1187
  170PC     C21 7587  -1.595   2.705   5.619 -0.5717 -0.3620 -0.1762
  170PC     O22 7588  -1.516   2.796   5.605 -0.8737 -0.3711 -0.3369
  171OL     C12 7589  -1.712   2.684   5.521 -0.4436 -0.3630 -0.0795
  171OL     H2R 7590  -1.707   2.777   5.464  0.2765  0.1167  0.7393
  171OL     H2S 7591  -1.800   2.668   5.583  1.1981 -1.3236  2.1174
  171OL     C13 7592  -1.688   2.556   5.440  0.2701 -0.6262  0.0527
  171OL     H3R 7593  -1.695   2.470   5.508 -1.2730 -0.4392  0.1609
  171OL     H3S 7594  -1.586   2.544   5.402 -0.0947  1.1538 -1.6270
  171OL     C14 7595  -1.789   2.539   5.329  0.3546  0.4159  0.0018
  171OL     H4R 7596  -1.787   2.622   5.257 -1.1243  0.4815 -0.0110
  171OL     H4S 7597  -1.887   2.547   5.378  0.7333 -1.3404  1.1072
  171OL     C15 7598  -1.788   2.410   5.261  0.9730 -0.4530  0.6032
  171OL     H5R 7599  -1.781   2.334   5.339  0.2735  0.1980  1.3002
  171OL     H5S 7600  -1.706   2.395   5.189 -0.6505  0.4667 -1.5460
  171OL     C16 7601  -1.919   2.387   5.185  0.3833 -0.4203  0.9208
  171OL     H6R 7602  -2.002   2.396   5.256  0.7764  2.0369  1.1428
  171OL     H6S 7603  -1.946   2.284   5.160 -0.7782 -0.2193  1.2740
  171OL     C17 7604  -1.944   2.481   5.061  0.0254 -0.2700 -0.7608
  171OL     H7R 7605  -1.946   2.579   5.110 -0.8031 -0.7696  0.2457
  171OL     H7S 7606  -2.049   2.467   5.036 -0.6010 -1.5435  2.1203
  171OL     C18 7607  -1.844   2.471   4.947 -0.0917 -0.5876 -0.6936
  171OL     H8R 7608  -1.747   2.502   4.988 -1.5028  2.4203  0.6266
  171OL     H8S 7609  -1.877   2.556   4.887 -0.0033 -0.2766 -0.3078
  171OL     C19 7610  -1.838   2.343   4.877 -0.3716  0.1461  0.4462
  171OL     H9R 7611  -1.923   2.325   4.812 -0.0160 -0.6025  0.1690
  171OL    C110 7612  -1.736   2.258   4.873  0.1424 -0.6365  0.0360
  171OL    H10R 7613  -1.749   2.170   4.810  1.7401  0.2654 -1.6405
  171OL    C111 7614  -1.596   2.265   4.930  0.1219 -0.0808 -0.8058
  171OL    H11R 7615  -1.573   2.357   4.984 -2.0199  1.1427 -1.8725
  171OL    H11S 7616  -1.524   2.260   4.848 -0.1947  2.9753 -1.3937
  171OL    C112 7617  -1.569   2.151   5.035  0.1171 -0.2696  0.0542
  171OL    H12R 7618  -1.624   2.164   5.128  1.2959 -0.5221  0.8176
  171OL    H12S 7619  -1.465   2.143   5.069 -0.4667 -0.3468  1.9628
  171OL    C113 7620  -1.603   2.007   4.983 -0.3291  0.2442  0.3950
  171OL    H13R 7621  -1.711   1.991   4.985 -0.2798 -0.0241  1.1850
  171OL    H13S 7622  -1.570   1.932   5.055 -0.5451  1.0631  1.3731
  171OL    C114 7623  -1.544   1.984   4.838  0.2912 -0.4910 -0.3038
  171OL    H14R 7624  -1.442   2.020   4.823  0.1712 -0.5195 -1.3041
  171OL    H14S 7625  -1.613   2.031   4.768 -0.1374 -0.8855 -0.1520
  171OL    C115 7626  -1.563   1.834   4.811 -0.0262  0.2086 -0.0464
  171OL    H15R 7627  -1.510   1.771   4.882 -0.5780 -0.0901  0.1096
  171OL    H15S 7628  -1.508   1.823   4.717 -1.3872  0.9117 -0.9555
  171OL    C116 7629  -1.698   1.770   4.779  0.1286 -0.4738 -0.1465
  171OL    H16R 7630  -1.743   1.831   4.701 -0.0225  0.6857  0.8133
  171OL    H16S 7631  -1.754   1.781   4.872  0.2985 -0.5069 -0.0395
  171OL    C117 7632  -1.685   1.629   4.731 -0.1119  0.2785 -0.3227
  171OL    H17R 7633  -1.788   1.594   4.725  0.2032 -0.6454 -0.4216
  171OL    H17S 7634  -1.647   1.559   4.805  0.0272  1.3412  0.6454
  171OL    C118 7635  -1.602   1.623   4.608 -0.1590  0.9832 -0.4374
  171OL    H18R 7636  -1.497   1.613   4.636 -0.4382 -1.8601 -0.0976
  171OL    H18S 7637  -1.617   1.708   4.542  0.7373  0.5896 -1.1627
  171OL    H18T 7638  -1.627   1.535   4.549 -0.2341 -0.0177  1.0273
  172PA    C116 7639   5.639   3.036   4.005  0.1082 -1.1526  0.8359
  172PA    H16R 7640   5.702   2.960   4.052  1.0515  0.0464  1.5463
  172PA    H16S 7641   5.659   3.040   3.897  1.1482 -0.2087  1.0522
  172PA    H16T 7642   5.535   3.003   4.005 -0.2604 -0.0058  1.0004
  172PA    C115 7643   5.641   3.165   4.083  0.2789  0.2520  0.2922
  172PA    H15R 7644   5.741   3.210   4.082  0.9996 -1.2639  1.0703
  172PA    H15S 7645   5.574   3.237   4.037 -1.0459 -0.2991  1.3127
  172PA    C114 7646   5.596   3.131   4.228 -0.3672 -0.3803 -0.1643
  172PA    H14R 7647   5.494   3.095   4.219 -0.6344  0.1911  0.4814
  172PA    H14S 7648   5.666   3.055   4.263  1.1920  1.2029  0.3624
  172PA    C113 7649   5.597   3.257   4.320  0.3018  0.5772  0.9655
  172PA    H13R 7650   5.539   3.335   4.270  0.8942  1.5142  1.7120
  172PA    H13S 7651   5.541   3.239   4.413 -0.6114 -2.3883 -0.0605
  172PA    C112 7652   5.730   3.321   4.348  0.3412  0.9636  0.1597
  172PA    H12R 7653   5.806   3.243   4.339 -1.3816 -0.9152  1.0783
  172PA    H12S 7654   5.751   3.381   4.260  3.1970 -1.6032 -1.0906
  172PA    C111 7655   5.719   3.408   4.487 -0.4050  0.4110  0.0309
  172PA    H11R 7656   5.656   3.495   4.469 -1.6396 -0.6374 -0.9258
  172PA    H11S 7657   5.671   3.359   4.572 -1.2138 -0.9342 -1.1605
  172PA    C110 7658   5.855   3.455   4.537  0.3041  0.1033  0.0491
  172PA    H10R 7659   5.920   3.368   4.548  1.4029  1.0731  1.5718
  172PA    H10S 7660   5.905   3.518   4.464  1.9782 -0.4142  0.6874
  172PA     C19 7661   5.857   3.533   4.670  0.8406  0.7329 -0.7107
  172PA     H9R 7662   5.817   3.463   4.743  0.6514 -1.3057 -2.6780
  172PA     H9S 7663   5.962   3.547   4.697  0.8211  1.5230 -0.9846
  172PA     C18 7664   5.778   3.663   4.680  0.2357  0.3431  0.1521
  172PA     H8R 7665   5.798   3.730   4.596  1.6640 -0.2113  0.0219
  172PA     H8S 7666   5.672   3.636   4.672  0.6754 -1.0542 -1.7111
  172PA     C17 7667   5.806   3.739   4.812  0.1940 -0.4032 -0.0508
  172PA     H7R 7668   5.907   3.725   4.852 -0.2895 -0.7752  1.0972
  172PA     H7S 7669   5.801   3.845   4.789  1.2240 -0.1910  0.6340
  172PA     C16 7670   5.693   3.712   4.922  0.2326  0.2215 -0.1403
  172PA     H6R 7671   5.591   3.727   4.887 -0.4822 -0.0997  1.6916
  172PA     H6S 7672   5.700   3.606   4.948 -2.0365 -0.3609 -1.6928
  172PA     C15 7673   5.726   3.790   5.046 -0.6042  1.3821  0.7253
  172PA     H5R 7674   5.832   3.766   5.057 -1.2913 -1.9073  1.3062
  172PA     H5S 7675   5.701   3.893   5.019 -2.4967  1.2327  1.6848
  172PA     C14 7676   5.653   3.734   5.164  0.4311  0.4332 -0.4633
  172PA     H4R 7677   5.547   3.725   5.138  0.4563  0.6386 -0.6373
  172PA     H4S 7678   5.688   3.632   5.181 -3.5444 -0.7966  1.7435
  172PA     C13 7679   5.654   3.815   5.296 -0.0135 -0.7256 -0.7786
  172PA     H3R 7680   5.581   3.780   5.369 -0.6591  1.8625 -0.0892
  172PA     H3S 7681   5.750   3.799   5.346 -0.0924  1.0932  0.0384
  172PA     C12 7682   5.632   3.971   5.290  0.1620 -0.2045 -0.8871
  172PA     H2R 7683   5.703   4.025   5.228  0.1452 -0.8848 -1.5102
  172PA     H2S 7684   5.538   3.997   5.242  1.1464  1.8942 -1.7925
  173PC     C11 7685   5.649   4.023   5.432 -0.1478 -0.7454  0.8931
  173PC     O12 7686   5.615   3.968   5.534 -0.3340 -0.0182 -0.2396
  173PC     O11 7687   5.711   4.144   5.440 -0.0343  0.1500  0.1734
  173PC      C1 7688   5.749   4.204   5.571  0.0850 -0.2490  0.3707
  173PC      HR 7689   5.762   4.311   5.555  1.2165 -0.4459 -0.0598
  173PC      HS 7690   5.660   4.198   5.635 -1.9062  2.9332 -1.8132
  173PC      C2 7691   5.875   4.137   5.627  0.0039 -0.6249  0.1652
  173PC      HX 7692   5.846   4.043   5.674  3.2676 -1.0967  1.4642
  173PC      C3 7693   5.928   4.221   5.740 -0.0520  0.2313 -0.1066
  173PC      HA 7694   6.029   4.191   5.766 -0.0759 -1.1050 -1.4793
  173PC      HB 7695   5.935   4.327   5.714  1.1104  0.4006  0.7894
  173PC     O31 7696   5.839   4.209   5.854  0.6407  0.5708 -0.3047
  173PC     P31 7697   5.871   4.123   5.987 -0.1577 -0.3574  0.1757
  173PC     O32 7698   5.957   4.222   6.069  0.0069 -0.0967  0.3348
  173PC     C31 7699   5.903   4.334   6.134 -0.3974 -0.0572 -0.0720
  173PC     H1A 7700   5.804   4.312   6.174 -1.1986 -0.9020 -2.3497
  173PC     H1B 7701   5.969   4.371   6.214  0.6910 -1.1265 -0.4378
  173PC     C32 7702   5.886   4.443   6.033 -0.0761 -0.1031 -0.1984
  173PC     H2A 7703   5.973   4.443   5.967 -0.2167  0.5565 -0.3986
  173PC     H2B 7704   5.809   4.413   5.961 -1.3927  0.2384  1.0289
  173PC     N31 7705   5.860   4.583   6.080  0.0268  0.0354  0.5043
  173PC     C33 7706   5.733   4.585   6.151 -0.0411 -0.3124 -0.0031
  173PC     H3A 7707   5.732   4.535   6.248 -2.3244  0.6553  0.5515
  173PC     H3B 7708   5.713   4.690   6.171  1.9685 -0.2404  1.8958
  173PC     H3C 7709   5.658   4.547   6.080  0.8521 -0.7607 -0.7222
  173PC     C34 7710   5.962   4.646   6.159  0.1456 -0.4298 -0.0602
  173PC     H4A 7711   5.998   4.567   6.225  0.6545 -1.2429 -1.2603
  173PC     H4B 7712   6.050   4.667   6.099 -0.5299  1.9071 -0.3273
  173PC     H4C 7713   5.915   4.730   6.210 -2.3719 -0.5708 -1.9540
  173PC     C35 7714   5.854   4.666   5.962  0.1145  0.0509  0.2487
  173PC     H5A 7715   5.953   4.668   5.915  0.1891 -2.8389  0.0555
  173PC     H5B 7716   5.822   4.768   5.982  0.0333  0.7047 -2.7035
  173PC     H5C 7717   5.772   4.619   5.907 -0.1157  0.9457 -0.1948
  173PC     O33 7718   5.744   4.098   6.056  0.0514  0.5856  0.6118
  173PC     O34 7719   5.942   4.003   5.945 -0.5016  0.0949  0.0938
  173PC     O21 7720   5.991   4.114   5.534  0.1643  0.0954  0.6096
  173PC     C21 7721   6.036   4.205   5.445 -0.8509  0.1690  0.3094
  173PC     O22 7722   5.997   4.314   5.425 -0.0613  0.2916 -0.5634
  174OL     C12 7723   6.152   4.153   5.356  0.6303  0.2188  0.3317
  174OL     H2R 7724   6.172   4.049   5.385 -0.0191  0.2798  1.0222
  174OL     H2S 7725   6.244   4.209   5.372  0.2153  0.8993  0.3964
  174OL     C13 7726   6.119   4.149   5.205 -0.2515 -0.7057 -0.0372
  174OL     H3R 7727   6.199   4.092   5.158 -0.1010  0.0883 -0.7589
  174OL     H3S 7728   6.133   4.251   5.170 -1.8683 -0.2549  0.5277
  174OL     C14 7729   5.973   4.110   5.164 -0.5161  0.4510  0.2279
  174OL     H4R 7730   5.899   4.165   5.223 -1.2914  1.3439 -1.5185
  174OL     H4S 7731   5.950   4.004   5.177 -0.7103  0.6809  2.0944
  174OL     C15 7732   5.956   4.145   5.015 -0.2936 -0.4652  0.0621
  174OL     H5R 7733   5.850   4.142   4.988  0.0561 -1.5561 -1.2556
  174OL     H5S 7734   5.976   4.252   5.011 -0.3286 -0.3851  1.4925
  174OL     C16 7735   6.044   4.067   4.922  0.3178 -0.6247  0.5949
  174OL     H6R 7736   6.038   3.960   4.941 -1.5600 -0.3071  2.0773
  174OL     H6S 7737   6.148   4.099   4.937 -0.2989  1.0836  1.5785
  174OL     C17 7738   6.001   4.104   4.784  0.1984  0.6778  0.6286
  174OL     H7R 7739   5.990   4.213   4.780  1.6742  0.8169 -1.0416
  174OL     H7S 7740   5.902   4.058   4.773  0.5359  0.0014  0.4455
  174OL     C18 7741   6.091   4.054   4.673 -0.3402 -0.0180 -0.0333
  174OL     H8R 7742   6.195   4.083   4.691  0.2817 -0.9733 -1.7825
  174OL     H8S 7743   6.073   4.099   4.575 -1.4192  0.3952  0.3529
  174OL     C19 7744   6.082   3.902   4.659  0.6742  0.6118 -0.1806
  174OL     H9R 7745   6.122   3.836   4.735  0.5978 -2.4947 -2.6137
  174OL    C110 7746   6.044   3.847   4.545 -0.2948  0.4394  0.4641
  174OL    H10R 7747   6.059   3.740   4.536 -2.1599 -0.3138  4.3308
  174OL    C111 7748   5.994   3.913   4.417 -0.5838  0.2649 -0.4166
  174OL    H11R 7749   6.060   3.994   4.386 -0.9699  0.2011 -1.4298
  174OL    H11S 7750   5.895   3.960   4.422 -1.1867 -1.0298  0.3372
  174OL    C112 7751   5.986   3.817   4.299  0.1734  0.1312  0.1121
  174OL    H12R 7752   5.897   3.755   4.313  1.0893 -1.4234 -0.6702
  174OL    H12S 7753   6.079   3.759   4.305  1.5432  2.1516 -0.6376
  174OL    C113 7754   5.998   3.903   4.170  0.3430 -0.9048  0.2251
  174OL    H13R 7755   6.056   3.995   4.182 -0.0682 -0.2419 -2.2483
  174OL    H13S 7756   5.904   3.941   4.128  1.6969  1.8966 -0.5348
  174OL    C114 7757   6.066   3.819   4.067 -0.0892  0.5480 -0.5200
  174OL    H14R 7758   6.171   3.827   4.096 -0.6355  2.0531  1.2227
  174OL    H14S 7759   6.051   3.874   3.974 -1.4667  1.0147 -0.0499
  174OL    C115 7760   6.015   3.677   4.050  0.0563  0.0109  0.4658
  174OL    H15R 7761   5.907   3.680   4.061  0.2344  0.9544  2.3186
  174OL    H15S 7762   6.052   3.611   4.129 -1.7392 -2.2522 -0.4951
  174OL    C116 7763   6.052   3.618   3.914  0.1855  0.4541  0.3504
  174OL    H16R 7764   6.157   3.588   3.903  0.1793  0.7210 -0.4513
  174OL    H16S 7765   6.042   3.687   3.831 -0.5075 -0.3125 -0.2233
  174OL    C117 7766   5.968   3.498   3.869 -0.1170  0.4679 -0.3821
  174OL    H17R 7767   5.985   3.409   3.929  2.9409  1.4500  0.3745
  174OL    H17S 7768   5.992   3.473   3.765 -0.7009 -2.3837  0.0883
  174OL    C118 7769   5.818   3.534   3.876 -0.6031 -0.6609  0.2015
  174OL    H18R 7770   5.815   3.637   3.840 -4.5373 -0.9284 -0.6606
  174OL    H18S 7771   5.779   3.527   3.978  0.3359  0.1999  0.6255
  174OL    H18T 7772   5.752   3.468   3.818 -0.0079 -0.8337 -0.2864
  175PA    C116 7773   1.624   4.687   3.584 -0.4375  0.0643 -0.9540
  175PA    H16R 7774   1.673   4.779   3.616  0.5948 -1.4474  2.3158
  175PA    H16S 7775   1.540   4.715   3.520 -1.7237 -0.1311  0.5849
  175PA    H16T 7776   1.696   4.634   3.521 -0.5604  1.0769 -1.9692
  175PA    C115 7777   1.587   4.613   3.712 -0.2318 -0.4226  1.1454
  175PA    H15R 7778   1.512   4.674   3.761  0.6018  1.4179  0.2317
  175PA    H15S 7779   1.546   4.514   3.691  2.3697 -1.2649 -0.4617
  175PA    C114 7780   1.701   4.600   3.818  0.3425  0.7713  0.3459
  175PA    H14R 7781   1.792   4.554   3.777 -1.5141 -1.3108 -1.7682
  175PA    H14S 7782   1.723   4.704   3.840  2.2134  0.6504 -0.7140
  175PA    C113 7783   1.657   4.533   3.953  0.0495  0.2772 -0.2467
  175PA    H13R 7784   1.549   4.549   3.960 -0.1486 -1.3728  1.1256
  175PA    H13S 7785   1.654   4.425   3.934  0.0805 -0.0850  1.6679
  175PA    C112 7786   1.738   4.571   4.073 -0.8589 -0.1480 -0.6363
  175PA    H12R 7787   1.837   4.523   4.073 -0.8696 -0.2430  1.2097
  175PA    H12S 7788   1.756   4.678   4.070 -0.8552 -0.1223  0.1249
  175PA    C111 7789   1.658   4.518   4.194  0.6008  0.2801 -0.0026
  175PA    H11R 7790   1.562   4.571   4.186 -0.2631 -1.3501 -0.7790
  175PA    H11S 7791   1.649   4.410   4.182  2.4580  0.1737 -0.8013
  175PA    C110 7792   1.733   4.557   4.326  0.3081 -0.6695  0.0560
  175PA    H10R 7793   1.836   4.521   4.318  0.1107 -1.3697  0.5587
  175PA    H10S 7794   1.744   4.663   4.350  3.1025 -0.7530 -0.5142
  175PA     C19 7795   1.669   4.490   4.445 -0.4372  0.0769  0.5734
  175PA     H9R 7796   1.561   4.499   4.428 -0.6568 -0.4371  1.6149
  175PA     H9S 7797   1.694   4.384   4.446 -1.0383 -0.0652  1.0464
  175PA     C18 7798   1.713   4.554   4.576 -0.3690 -0.0829 -0.4596
  175PA     H8R 7799   1.820   4.551   4.600 -0.7554  1.1651  1.6255
  175PA     H8S 7800   1.694   4.662   4.578 -1.1673 -0.2233  0.9535
  175PA     C17 7801   1.627   4.481   4.681 -0.4923  0.2118 -1.0666
  175PA     H7R 7802   1.526   4.521   4.674 -0.0736  1.7858  1.0325
  175PA     H7S 7803   1.625   4.373   4.664 -1.6856 -0.0492  0.5521
  175PA     C16 7804   1.679   4.512   4.819  0.1187  0.0464 -0.0605
  175PA     H6R 7805   1.613   4.468   4.894  1.3642 -0.5469  0.7382
  175PA     H6S 7806   1.771   4.455   4.836  0.4040  0.3406 -0.5961
  175PA     C15 7807   1.682   4.666   4.843 -0.3411 -0.3781  0.2134
  175PA     H5R 7808   1.751   4.720   4.778 -1.6249  0.1942 -0.7080
  175PA     H5S 7809   1.578   4.695   4.824 -1.5013 -4.4919 -0.8430
  175PA     C14 7810   1.726   4.707   4.983 -0.4738 -0.2276  0.7866
  175PA     H4R 7811   1.835   4.709   4.986 -0.4848  1.8113  3.0029
  175PA     H4S 7812   1.691   4.808   5.005  2.5439  1.2009 -0.4046
  175PA     C13 7813   1.675   4.611   5.095 -0.0217 -0.0343  0.0366
  175PA     H3R 7814   1.566   4.622   5.098  0.0047  0.1232  2.6000
  175PA     H3S 7815   1.707   4.509   5.075 -1.6645 -0.7557  0.8532
  175PA     C12 7816   1.729   4.665   5.227 -0.7080  0.2003  0.0441
  175PA     H2R 7817   1.836   4.684   5.212 -1.0732  1.6016 -1.0234
  175PA     H2S 7818   1.694   4.765   5.255  2.3232  1.2295  0.5180
  176PC     C11 7819   1.714   4.574   5.343 -0.0861  0.1179 -0.2216
  176PC     O12 7820   1.626   4.576   5.426  0.7278 -0.5276  0.2586
  176PC     O11 7821   1.819   4.491   5.359 -0.2336 -0.2933  0.5321
  176PC      C1 7822   1.815   4.398   5.460 -0.1415 -0.0494  0.0817
  176PC      HR 7823   1.916   4.357   5.467 -0.4537 -0.5756  2.3625
  176PC      HS 7824   1.782   4.447   5.552 -3.0864  1.3301 -1.5538
  176PC      C2 7825   1.732   4.271   5.431 -0.4797  0.1488 -0.2921
  176PC      HX 7826   1.626   4.294   5.415 -0.7054  1.3519  2.3468
  176PC      C3 7827   1.748   4.183   5.553  0.0281  0.0762 -0.2203
  176PC      HA 7828   1.688   4.240   5.626  1.6100  0.4421  0.8431
  176PC      HB 7829   1.703   4.087   5.529  1.7087 -0.3316 -1.9429
  176PC     O31 7830   1.881   4.165   5.600 -0.7062  0.0559 -0.0184
  176PC     P31 7831   1.911   4.095   5.738  0.2155  0.2087  0.2753
  176PC     O32 7832   1.943   3.944   5.695 -0.2129 -0.1248 -0.2928
  176PC     C31 7833   1.839   3.855   5.662 -0.5257 -0.2558  0.0888
  176PC     H1A 7834   1.762   3.896   5.596 -1.0325 -0.3581  0.6128
  176PC     H1B 7835   1.892   3.779   5.603  0.1801  0.1115  0.2447
  176PC     C32 7836   1.781   3.790   5.785  1.1456  0.2754 -0.2694
  176PC     H2A 7837   1.862   3.781   5.858  0.5712 -1.7218  0.1665
  176PC     H2B 7838   1.707   3.860   5.823  0.1016  0.2043 -2.0624
  176PC     N31 7839   1.722   3.654   5.771  0.2821  0.0524  0.3008
  176PC     C33 7840   1.652   3.598   5.901 -0.1557 -0.5329 -0.5417
  176PC     H3A 7841   1.724   3.586   5.982 -1.3571 -0.3497  0.5779
  176PC     H3B 7842   1.577   3.669   5.935 -0.5858 -1.1388 -0.2199
  176PC     H3C 7843   1.604   3.502   5.882  0.6896 -1.1449  0.2895
  176PC     C34 7844   1.610   3.656   5.674 -0.0524 -0.3100 -0.5629
  176PC     H4A 7845   1.582   3.553   5.653  0.3014 -0.8551  1.4681
  176PC     H4B 7846   1.533   3.720   5.716  0.0769 -1.1708  1.0624
  176PC     H4C 7847   1.647   3.703   5.582  1.8194 -1.7081 -0.5842
  176PC     C35 7848   1.831   3.562   5.726 -0.4193  0.5830 -0.9394
  176PC     H5A 7849   1.833   3.579   5.619 -2.7619  1.0784 -0.9561
  176PC     H5B 7850   1.797   3.460   5.743  0.8152 -0.2918 -3.3797
  176PC     H5C 7851   1.920   3.578   5.788 -1.5124 -0.0263  0.8875
  176PC     O33 7852   2.021   4.154   5.812  0.0217  0.2107 -0.0009
  176PC     O34 7853   1.778   4.092   5.803  0.1779 -0.3568  0.2593
  176PC     O21 7854   1.785   4.209   5.314  0.4822  0.5636  0.8444
  176PC     C21 7855   1.718   4.229   5.196  0.1551 -0.5932 -0.2859
  176PC     O22 7856   1.611   4.284   5.194 -0.1497 -0.3843 -0.2353
  177OL     C12 7857   1.795   4.172   5.080  0.8438  0.1660  0.2098
  177OL     H2R 7858   1.841   4.082   5.122 -0.6909 -1.6163 -1.7224
  177OL     H2S 7859   1.866   4.243   5.037  2.3040 -0.4719  1.4533
  177OL     C13 7860   1.699   4.128   4.969 -0.3464  0.0171  0.0407
  177OL     H3R 7861   1.653   4.218   4.929  2.7356  1.5651 -0.3700
  177OL     H3S 7862   1.619   4.065   5.006 -1.0249  0.4631 -0.6258
  177OL     C14 7863   1.764   4.063   4.845 -0.4997  0.4776 -0.2487
  177OL     H4R 7864   1.827   3.977   4.871 -2.0382 -0.8232 -0.6402
  177OL     H4S 7865   1.832   4.130   4.793  0.0393  0.6631  0.6675
  177OL     C15 7866   1.658   4.003   4.752 -0.0144 -0.5705 -0.0047
  177OL     H5R 7867   1.578   4.077   4.756  0.2473 -0.3421  2.1388
  177OL     H5S 7868   1.617   3.913   4.800  0.8196 -0.8492  0.1955
  177OL     C16 7869   1.709   3.961   4.615  0.2576 -0.3096  0.2740
  177OL     H6R 7870   1.766   4.036   4.559 -1.6238 -0.2830 -1.7690
  177OL     H6S 7871   1.618   3.937   4.559  0.9802  0.6453 -1.4091
  177OL     C17 7872   1.790   3.830   4.619  0.0939  0.4234 -0.4844
  177OL     H7R 7873   1.736   3.758   4.680 -1.5402  1.3699 -0.7511
  177OL     H7S 7874   1.889   3.840   4.665 -0.5841  0.9785  0.9065
  177OL     C18 7875   1.813   3.759   4.486  0.3316  0.4850 -0.5453
  177OL     H8R 7876   1.716   3.734   4.443 -0.2051 -2.1239  1.8746
  177OL     H8S 7877   1.868   3.667   4.504  0.3997  0.7182  0.5271
  177OL     C19 7878   1.896   3.849   4.395  0.3471  0.0505  0.4015
  177OL     H9R 7879   1.983   3.897   4.440  0.2623 -0.5184  1.2005
  177OL    C110 7880   1.872   3.863   4.267  0.0197 -0.2122  0.2074
  177OL    H10R 7881   1.938   3.929   4.210 -0.1576  0.9782  1.3345
  177OL    C111 7882   1.753   3.810   4.187 -0.3758 -0.1594  0.2319
  177OL    H11R 7883   1.665   3.789   4.248 -2.9816  0.8110 -2.9067
  177OL    H11S 7884   1.778   3.714   4.141 -2.2310 -0.8931  0.6865
  177OL    C112 7885   1.710   3.901   4.076  0.5015 -0.3983 -0.5148
  177OL    H12R 7886   1.798   3.916   4.013 -1.2697 -0.0480 -3.0420
  177OL    H12S 7887   1.684   3.999   4.118  1.2474  0.7688 -2.6629
  177OL    C113 7888   1.596   3.843   3.995  0.4888  0.4711 -0.1523
  177OL    H13R 7889   1.502   3.842   4.051  0.4045 -0.6425 -0.2865
  177OL    H13S 7890   1.635   3.741   3.982 -0.7168  0.1260 -1.1773
  177OL    C114 7891   1.581   3.920   3.861  0.3853  0.4161  1.0897
  177OL    H14R 7892   1.676   3.922   3.806  0.1280 -0.8006  0.5481
  177OL    H14S 7893   1.549   4.024   3.871 -1.0089  0.0079  1.0920
  177OL    C115 7894   1.472   3.849   3.776  0.0414  0.3966 -0.4419
  177OL    H15R 7895   1.378   3.852   3.833  0.3035  1.4179 -0.0409
  177OL    H15S 7896   1.492   3.745   3.748 -1.9854  0.0664 -0.8328
  177OL    C116 7897   1.462   3.934   3.652 -0.3457  0.5582 -0.1024
  177OL    H16R 7898   1.563   3.952   3.612 -0.3023 -0.4913 -0.4871
  177OL    H16S 7899   1.431   4.036   3.673  0.1309  0.4173  1.3660
  177OL    C117 7900   1.371   3.870   3.544  0.1073 -0.7594 -0.5252
  177OL    H17R 7901   1.413   3.779   3.500  2.0334 -1.3183  2.2405
  177OL    H17S 7902   1.361   3.951   3.472  1.3017  0.9340  1.1262
  177OL    C118 7903   1.227   3.838   3.596  0.0529 -0.5939  0.1176
  177OL    H18R 7904   1.192   3.937   3.628 -2.2534 -1.8866  1.9226
  177OL    H18S 7905   1.228   3.771   3.683  1.2925 -0.9433 -0.1444
  177OL    H18T 7906   1.172   3.804   3.508 -0.4828  0.3512  0.0743
  178PA    C116 7907   6.264   2.386   4.258 -0.4794  0.4271  0.3609
  178PA    H16R 7908   6.231   2.287   4.288 -1.8297  1.3432  2.1109
  178PA    H16S 7909   6.370   2.371   4.239 -0.7349 -1.9290  0.5304
  178PA    H16T 7910   6.218   2.416   4.164 -1.6634  0.2660  0.8649
  178PA    C115 7911   6.245   2.494   4.361  0.1433  0.3624  0.6710
  178PA    H15R 7912   6.313   2.571   4.325 -1.4344  0.3304 -2.7916
  178PA    H15S 7913   6.145   2.538   4.362 -0.2246 -0.4485  0.6139
  178PA    C114 7914   6.291   2.455   4.508  0.2621 -0.1382 -0.1630
  178PA    H14R 7915   6.386   2.408   4.484  1.1173  1.4919 -0.0673
  178PA    H14S 7916   6.309   2.546   4.566  0.8862  1.0416 -2.0968
  178PA    C113 7917   6.195   2.362   4.588  0.7397  0.7279 -0.4152
  178PA    H13R 7918   6.107   2.421   4.613  0.7591  0.2473  0.8243
  178PA    H13S 7919   6.166   2.278   4.525  3.3452 -0.1662 -0.5775
  178PA    C112 7920   6.251   2.296   4.714  0.1857  0.8671  0.4513
  178PA    H12R 7921   6.270   2.375   4.786  1.4106  0.2687  0.8039
  178PA    H12S 7922   6.179   2.233   4.767  1.4241 -1.0437 -0.0088
  178PA    C111 7923   6.385   2.211   4.682  0.5554  0.1908 -0.2378
  178PA    H11R 7924   6.377   2.139   4.600 -0.5681  0.1765 -0.1290
  178PA    H11S 7925   6.466   2.281   4.662  0.8809 -0.2199 -0.3552
  178PA    C110 7926   6.425   2.124   4.802 -0.1625  0.5785 -0.2041
  178PA    H10R 7927   6.348   2.047   4.799  0.7544 -0.3631 -3.6658
  178PA    H10S 7928   6.512   2.070   4.766  1.3451  2.0588  1.0502
  178PA     C19 7929   6.458   2.193   4.931 -0.4780 -0.1113 -0.5921
  178PA     H9R 7930   6.565   2.214   4.927 -0.3012 -1.0346 -0.9871
  178PA     H9S 7931   6.404   2.287   4.931  1.2447  0.9638  0.9438
  178PA     C18 7932   6.428   2.106   5.060 -0.1219 -0.8190 -0.9045
  178PA     H8R 7933   6.465   2.160   5.147  0.5075 -0.9813 -1.0604
  178PA     H8S 7934   6.319   2.097   5.058 -0.2931  1.0990 -2.1291
  178PA     C17 7935   6.512   1.981   5.057  0.0342  0.2970 -0.2914
  178PA     H7R 7936   6.468   1.916   4.981 -1.2083  0.1502  0.5246
  178PA     H7S 7937   6.615   2.003   5.028  1.0056 -0.8431  2.0706
  178PA     C16 7938   6.517   1.902   5.188 -0.6437  0.0947  0.3115
  178PA     H6R 7939   6.557   1.970   5.264 -0.7712 -1.7898  2.1534
  178PA     H6S 7940   6.418   1.862   5.205 -0.1324 -0.5510  2.0263
  178PA     C15 7941   6.614   1.788   5.166  0.3024  0.3873 -0.0630
  178PA     H5R 7942   6.562   1.716   5.101  1.0804  1.2418 -1.6864
  178PA     H5S 7943   6.710   1.813   5.121 -0.2572 -0.5323 -1.8520
  178PA     C14 7944   6.643   1.725   5.310  0.5436  0.2595 -0.1610
  178PA     H4R 7945   6.708   1.799   5.357 -0.3735  1.3317 -0.5611
  178PA     H4S 7946   6.551   1.728   5.368  1.0197  1.4559  0.5500
  178PA     C13 7947   6.694   1.585   5.313 -0.6180 -0.7791 -0.5482
  178PA     H3R 7948   6.787   1.599   5.257  0.2519  2.0559  1.3635
  178PA     H3S 7949   6.723   1.566   5.416 -0.9631  0.3782 -0.2164
  178PA     C12 7950   6.594   1.482   5.266 -0.6075  0.1972 -0.7596
  178PA     H2R 7951   6.500   1.506   5.316 -0.4773 -0.7067 -0.0570
  178PA     H2S 7952   6.588   1.479   5.157  1.7180 -0.5797 -0.9232
  179PC     C11 7953   6.632   1.342   5.315 -0.0945 -0.0827 -0.5640
  179PC     O12 7954   6.650   1.248   5.241 -0.2051 -0.5905  0.7290
  179PC     O11 7955   6.636   1.332   5.448  0.2631 -0.2443 -0.0082
  179PC      C1 7956   6.689   1.208   5.511  0.2711  0.7623 -0.3754
  179PC      HR 7957   6.620   1.178   5.591  0.1105  1.5965 -0.1898
  179PC      HS 7958   6.693   1.121   5.444 -0.5601 -1.3994  2.1972
  179PC      C2 7959   6.832   1.237   5.577  0.1598 -0.1232  0.9509
  179PC      HX 7960   6.865   1.144   5.624  0.2600 -0.2440  0.6394
  179PC      C3 7961   6.815   1.363   5.674 -0.1226  0.2459  0.3137
  179PC      HA 7962   6.911   1.402   5.707 -0.9002  1.3551  1.3828
  179PC      HB 7963   6.766   1.450   5.629 -1.5472  0.9064  2.9243
  179PC     O31 7964   6.728   1.336   5.788 -0.1648 -0.1736 -0.3019
  179PC     P31 7965   6.793   1.262   5.913  0.2556 -0.2061 -0.1052
  179PC     O32 7966   6.866   1.378   5.991  0.6906  0.0776 -0.2170
  179PC     C31 7967   6.794   1.462   6.081  1.0616 -0.7515  0.0359
  179PC     H1A 7968   6.840   1.561   6.084 -0.4291 -0.0301 -0.0223
  179PC     H1B 7969   6.692   1.484   6.050  1.0328 -2.9725 -1.6874
  179PC     C32 7970   6.796   1.416   6.221 -0.5147  0.7537 -0.2734
  179PC     H2A 7971   6.748   1.490   6.284  1.2168  2.7228 -1.1467
  179PC     H2B 7972   6.738   1.323   6.217 -0.3697  0.7038 -2.0913
  179PC     N31 7973   6.929   1.381   6.285  0.0120 -0.1464 -0.5796
  179PC     C33 7974   7.027   1.493   6.261  0.1536  0.2145  0.6983
  179PC     H3A 7975   7.099   1.489   6.343 -0.4857  3.0756  1.5239
  179PC     H3B 7976   7.063   1.503   6.158 -1.0776 -1.8029  0.0130
  179PC     H3C 7977   6.967   1.581   6.284 -0.3922  0.0201  0.0500
  179PC     C34 7978   6.907   1.365   6.433 -0.0884 -0.2359  0.4687
  179PC     H4A 7979   7.001   1.337   6.480 -1.0526  0.0759  2.6822
  179PC     H4B 7980   6.857   1.457   6.464 -0.0351  1.0876 -2.9174
  179PC     H4C 7981   6.840   1.284   6.464 -0.0660  0.5520  2.7109
  179PC     C35 7982   6.993   1.248   6.239  0.2135 -0.3755 -0.2969
  179PC     H5A 7983   7.010   1.262   6.132  0.9165 -0.6458 -0.2230
  179PC     H5B 7984   6.922   1.167   6.259  2.1732 -2.0081  0.3337
  179PC     H5C 7985   7.075   1.223   6.306  1.0840 -2.0381 -1.9009
  179PC     O33 7986   6.679   1.203   5.994  0.0084 -0.5308 -0.1435
  179PC     O34 7987   6.894   1.163   5.875 -0.1465 -0.1634 -0.2669
  179PC     O21 7988   6.926   1.267   5.471 -0.1099  0.1166  0.2673
  179PC     C21 7989   6.975   1.167   5.391 -0.4771  0.0260  0.3397
  179PC     O22 7990   6.950   1.050   5.404 -0.2935 -0.0811 -0.2138
  180OL     C12 7991   7.077   1.220   5.293 -0.0909  0.2460 -0.2260
  180OL     H2R 7992   7.173   1.178   5.325 -1.5765 -1.7330  1.9751
  180OL     H2S 7993   7.086   1.328   5.301 -1.4000  0.3011  0.7424
  180OL     C13 7994   7.049   1.173   5.146  0.1246 -0.7549  0.1831
  180OL     H3R 7995   6.948   1.192   5.109 -0.0655 -1.8066  0.1404
  180OL     H3S 7996   7.057   1.064   5.154  0.1380 -0.7513  0.2185
  180OL     C14 7997   7.164   1.208   5.045 -0.4450 -0.6737  0.1178
  180OL     H4R 7998   7.257   1.164   5.083 -0.1258 -0.1456 -0.0446
  180OL     H4S 7999   7.184   1.315   5.054 -1.7574 -0.4604  0.7313
  180OL     C15 8000   7.136   1.176   4.899 -0.0384 -0.1051  0.5796
  180OL     H5R 8001   7.072   1.260   4.868 -0.6408 -0.6013  0.4588
  180OL     H5S 8002   7.076   1.086   4.886 -1.6065  1.0861 -0.9816
  180OL     C16 8003   7.262   1.179   4.810 -0.4803 -0.7413  0.3887
  180OL     H6R 8004   7.326   1.095   4.837  0.3108 -0.2346  0.1225
  180OL     H6S 8005   7.316   1.273   4.824 -1.4102 -0.2661  0.8449
  180OL     C17 8006   7.237   1.183   4.651 -0.0797  0.0874 -0.4557
  180OL     H7R 8007   7.331   1.199   4.598  0.2736  0.2493  0.2033
  180OL     H7S 8008   7.170   1.267   4.630 -0.5226 -0.0419  0.3598
  180OL     C18 8009   7.191   1.048   4.601  0.5534 -0.4425  0.9977
  180OL     H8R 8010   7.094   1.023   4.643  0.1033  0.7703  0.7292
  180OL     H8S 8011   7.274   0.982   4.627  0.9809 -0.5737 -0.5925
  180OL     C19 8012   7.166   1.066   4.451  0.2585 -0.1073  0.0445
  180OL     H9R 8013   7.261   1.062   4.399 -0.4918  2.3921 -1.6967
  180OL    C110 8014   7.044   1.073   4.388  0.6911 -0.9324  0.3398
  180OL    H10R 8015   7.045   1.084   4.280 -1.0819  0.4953  0.4139
  180OL    C111 8016   6.908   1.095   4.462  0.3638 -0.3360  0.2114
  180OL    H11R 8017   6.897   1.047   4.559 -0.1748  1.4166  1.0624
  180OL    H11S 8018   6.829   1.051   4.402  0.5097 -0.8068  0.3563
  180OL    C112 8019   6.881   1.241   4.483 -0.3953 -0.3152  0.3580
  180OL    H12R 8020   6.911   1.307   4.401  1.1716  0.9113  1.8302
  180OL    H12S 8021   6.950   1.282   4.558  1.6839 -1.8237 -0.6173
  180OL    C113 8022   6.733   1.259   4.516  0.2305 -0.6217  1.0893
  180OL    H13R 8023   6.659   1.217   4.448 -0.0476  0.1471  0.9057
  180OL    H13S 8024   6.721   1.367   4.503 -1.3597 -0.8216  0.7450
  180OL    C114 8025   6.694   1.213   4.658  0.1564  0.2455  0.1771
  180OL    H14R 8026   6.697   1.104   4.670  2.3852  0.2931  0.4972
  180OL    H14S 8027   6.590   1.240   4.677 -0.4776  0.8983 -3.5286
  180OL    C115 8028   6.780   1.260   4.777  0.1213 -0.1557 -0.5118
  180OL    H15R 8029   6.884   1.231   4.763 -1.0314 -5.1764 -0.5708
  180OL    H15S 8030   6.750   1.209   4.868  1.7749 -0.1752  0.0613
  180OL    C116 8031   6.773   1.412   4.796  0.0122 -0.0800 -0.1747
  180OL    H16R 8032   6.670   1.423   4.829  0.2670  0.5313  0.4449
  180OL    H16S 8033   6.770   1.466   4.701  0.0542 -0.3410 -0.3239
  180OL    C117 8034   6.869   1.463   4.898 -0.7921  0.0224  0.2951
  180OL    H17R 8035   6.964   1.446   4.846 -1.4869 -0.6909 -0.7684
  180OL    H17S 8036   6.858   1.399   4.986  0.8531 -1.8800 -0.7894
  180OL    C118 8037   6.858   1.612   4.926 -0.1496  0.2941  0.5964
  180OL    H18R 8038   6.880   1.667   4.833 -1.6410  0.0288  0.0616
  180OL    H18S 8039   6.933   1.637   5.001  1.6371 -1.0646 -0.6427
  180OL    H18T 8040   6.759   1.640   4.961 -0.2968 -0.4506  0.7846
  181PA    C116 8041   6.570  -0.430   3.837  0.6242 -0.7645  0.2556
  181PA    H16R 8042   6.504  -0.356   3.790 -0.6325  0.0501  3.1190
  181PA    H16S 8043   6.675  -0.420   3.811  0.1419  2.0238 -1.0129
  181PA    H16T 8044   6.560  -0.418   3.945 -0.1275 -0.6686  0.1843
  181PA    C115 8045   6.514  -0.567   3.794  0.8453  0.0127  0.4880
  181PA    H15R 8046   6.541  -0.585   3.690  1.6297 -1.8157  0.9703
  181PA    H15S 8047   6.569  -0.633   3.862 -0.4110  0.2173  1.7376
  181PA    C114 8048   6.362  -0.575   3.818  0.0639 -0.1138  0.2555
  181PA    H14R 8049   6.320  -0.511   3.740 -1.6222 -0.8106  0.5488
  181PA    H14S 8050   6.326  -0.676   3.796  0.9603  0.2440 -3.4875
  181PA    C113 8051   6.325  -0.536   3.968 -1.3649  0.1242  0.7413
  181PA    H13R 8052   6.374  -0.597   4.045 -2.0304 -1.5220 -0.0999
  181PA    H13S 8053   6.358  -0.432   3.979  0.0877 -0.2351  0.0580
  181PA    C112 8054   6.173  -0.537   3.987 -0.1574  0.2099  0.5874
  181PA    H12R 8055   6.119  -0.474   3.916 -0.9410 -1.6647 -0.5841
  181PA    H12S 8056   6.131  -0.638   3.977 -0.2518  0.4478 -2.2945
  181PA    C111 8057   6.147  -0.481   4.129 -0.5150  0.7295 -0.4119
  181PA    H11R 8058   6.207  -0.393   4.150  0.3592  0.0604 -0.0191
  181PA    H11S 8059   6.047  -0.441   4.145 -0.1946  1.1289  0.7430
  181PA    C110 8060   6.172  -0.584   4.241  0.2320  0.2323 -0.0912
  181PA    H10R 8061   6.100  -0.666   4.229  0.4463 -0.2664  1.7347
  181PA    H10S 8062   6.268  -0.632   4.223  0.0006  0.4249 -2.0895
  181PA     C19 8063   6.165  -0.528   4.387 -0.8173 -0.0325 -0.9728
  181PA     H9R 8064   6.241  -0.452   4.405  2.6946 -3.1108 -1.5950
  181PA     H9S 8065   6.067  -0.481   4.399 -0.5830  0.1999  0.1686
  181PA     C18 8066   6.184  -0.631   4.501 -0.2061 -0.3719  0.0516
  181PA     H8R 8067   6.110  -0.708   4.477 -1.3127  0.6426  0.1462
  181PA     H8S 8068   6.282  -0.679   4.494 -0.5143 -0.8662 -1.2898
  181PA     C17 8069   6.175  -0.575   4.644 -0.5881 -0.3111  0.7215
  181PA     H7R 8070   6.242  -0.491   4.656  0.2406 -1.0223  1.1891
  181PA     H7S 8071   6.070  -0.546   4.647 -0.4354  0.2683  0.5711
  181PA     C16 8072   6.221  -0.679   4.748  0.6454  0.0013 -0.9231
  181PA     H6R 8073   6.200  -0.776   4.704  2.8696 -0.6807 -0.5969
  181PA     H6S 8074   6.329  -0.680   4.764  0.5997  0.3874 -0.5688
  181PA     C15 8075   6.138  -0.662   4.881 -0.4011 -0.2609  0.1612
  181PA     H5R 8076   6.138  -0.558   4.913 -0.2674 -0.3544  0.4680
  181PA     H5S 8077   6.033  -0.689   4.866 -1.2044  1.8794  1.4712
  181PA     C14 8078   6.205  -0.744   4.996 -0.0259 -0.3660  0.0301
  181PA     H4R 8079   6.230  -0.849   4.984  0.3234 -0.2182 -0.6225
  181PA     H4S 8080   6.297  -0.692   5.022 -0.4041 -0.6109  2.0270
  181PA     C13 8081   6.115  -0.736   5.127 -0.0810 -0.2114  0.2661
  181PA     H3R 8082   6.026  -0.796   5.110  1.1849 -1.9435 -0.6359
  181PA     H3S 8083   6.179  -0.784   5.202 -1.4414 -2.4743  0.0787
  181PA     C12 8084   6.072  -0.598   5.183  0.1607  0.0692 -0.1567
  181PA     H2R 8085   6.026  -0.533   5.109 -1.9014 -1.7673 -0.5873
  181PA     H2S 8086   5.995  -0.616   5.259  1.1256 -0.8702  0.6442
  182PC     C11 8087   6.185  -0.518   5.245  0.5125  0.9758 -0.5279
  182PC     O12 8088   6.300  -0.559   5.243  0.6209  0.3937 -0.4543
  182PC     O11 8089   6.146  -0.405   5.305 -1.0767 -0.3682 -0.5229
  182PC      C1 8090   6.246  -0.329   5.376  0.2487 -0.1362  0.6158
  182PC      HR 8091   6.313  -0.393   5.434  1.7049 -0.4531 -1.3012
  182PC      HS 8092   6.307  -0.276   5.301  0.3439 -1.1827 -0.0716
  182PC      C2 8093   6.179  -0.216   5.460 -0.2882 -0.1010 -0.5090
  182PC      HX 8094   6.259  -0.161   5.510 -0.0338  1.6716 -2.6923
  182PC      C3 8095   6.087  -0.282   5.564  0.2998 -0.0620  0.4536
  182PC      HA 8096   6.000  -0.319   5.509 -0.3931  0.5770  1.1007
  182PC      HB 8097   6.138  -0.367   5.610  0.8247  0.7313  1.3748
  182PC     O31 8098   6.036  -0.186   5.661  0.5323 -0.3522 -0.2946
  182PC     P31 8099   6.115  -0.155   5.797  0.3442  0.2739  0.3811
  182PC     O32 8100   6.096  -0.285   5.891 -0.0990  0.2264 -0.3007
  182PC     C31 8101   6.035  -0.275   6.015 -0.1482 -0.6775  0.1459
  182PC     H1A 8102   6.093  -0.206   6.077 -0.9372  0.2957 -0.1659
  182PC     H1B 8103   5.931  -0.244   6.006 -0.9776 -3.5003 -0.7096
  182PC     C32 8104   6.057  -0.407   6.087 -0.2446 -0.0621  0.6308
  182PC     H2A 8105   6.003  -0.490   6.040 -1.3663  0.2909  1.2595
  182PC     H2B 8106   6.164  -0.422   6.073 -0.3908 -0.2834 -0.3107
  182PC     N31 8107   6.025  -0.423   6.233  0.3242  0.5202  0.0758
  182PC     C33 8108   6.085  -0.309   6.314 -0.6295 -0.5107  0.3341
  182PC     H3A 8109   6.192  -0.310   6.291 -0.7052 -2.4779 -0.1139
  182PC     H3B 8110   6.031  -0.218   6.290  0.9220  0.1804 -0.7204
  182PC     H3C 8111   6.072  -0.340   6.418  0.4387 -2.1329  0.0281
  182PC     C34 8112   5.883  -0.426   6.249  0.1619  0.0504  1.1436
  182PC     H4A 8113   5.867  -0.464   6.350 -0.3466  1.2711  1.5523
  182PC     H4B 8114   5.848  -0.323   6.237 -0.4435 -0.0673  1.8377
  182PC     H4C 8115   5.839  -0.504   6.187  4.3747 -1.0228 -0.8498
  182PC     C35 8116   6.077  -0.551   6.280 -0.0998 -0.1995 -0.4398
  182PC     H5A 8117   6.025  -0.630   6.227  0.0427  0.3166 -1.3668
  182PC     H5B 8118   6.057  -0.557   6.388 -1.2424 -2.0639 -0.7060
  182PC     H5C 8119   6.179  -0.548   6.243 -0.4392  0.4890 -1.3698
  182PC     O33 8120   6.261  -0.142   5.771 -0.0845 -0.2886 -0.5828
  182PC     O34 8121   6.049  -0.039   5.862  0.0175  0.1450  0.1249
  182PC     O21 8122   6.100  -0.126   5.388  0.2186  0.9672  0.9766
  182PC     C21 8123   6.149  -0.011   5.354  0.2273 -0.3808 -0.0172
  182PC     O22 8124   6.265   0.021   5.373 -0.0015  0.0593 -0.4004
  183OL     C12 8125   6.054   0.081   5.281 -0.0402  0.4238  0.0212
  183OL     H2R 8126   6.022   0.160   5.350  2.4193  0.4047  1.3055
  183OL     H2S 8127   5.962   0.035   5.244  1.2047 -0.7777 -1.7456
  183OL     C13 8128   6.132   0.142   5.161  0.6913 -0.0606  0.2365
  183OL     H3R 8129   6.174   0.059   5.103 -0.6187 -0.6412  0.0816
  183OL     H3S 8130   6.219   0.196   5.197  0.5082  1.2709 -1.2389
  183OL     C14 8131   6.046   0.221   5.064  0.3643 -0.6495  0.1057
  183OL     H4R 8132   6.023   0.320   5.104 -0.6800 -1.2114  0.9588
  183OL     H4S 8133   5.953   0.170   5.040  1.6052 -2.2355 -1.6691
  183OL     C15 8134   6.136   0.234   4.937 -0.3236  0.5712 -0.1978
  183OL     H5R 8135   6.149   0.133   4.898  1.3057  1.2693 -1.5818
  183OL     H5S 8136   6.233   0.274   4.967 -0.6560  0.8009  0.6172
  183OL     C16 8137   6.083   0.340   4.832  0.4138  0.0812  0.4877
  183OL     H6R 8138   6.073   0.436   4.884  0.7555 -0.5336  1.7303
  183OL     H6S 8139   5.980   0.315   4.806  0.6268  0.1982 -0.5137
  183OL     C17 8140   6.166   0.354   4.700 -0.1192 -0.0475  0.1339
  183OL     H7R 8141   6.191   0.253   4.668 -0.0389  0.7412 -2.5899
  183OL     H7S 8142   6.263   0.399   4.723 -0.7739  0.2090  2.7008
  183OL     C18 8143   6.089   0.430   4.590  0.1359 -0.5733 -0.3581
  183OL     H8R 8144   6.038   0.518   4.630 -1.9486 -1.9695  0.2376
  183OL     H8S 8145   6.011   0.367   4.547 -0.4913 -0.4874  0.6117
  183OL     C19 8146   6.187   0.479   4.484  0.3960 -0.1624  0.1934
  183OL     H9R 8147   6.253   0.559   4.516  0.5126 -0.1815 -0.0002
  183OL    C110 8148   6.218   0.415   4.374 -0.3559 -0.7920  0.5192
  183OL    H10R 8149   6.300   0.459   4.319 -1.2201 -1.6040 -1.5006
  183OL    C111 8150   6.142   0.303   4.310  0.0960 -0.8603  0.2672
  183OL    H11R 8151   6.131   0.312   4.202  0.7289  0.3692  0.3000
  183OL    H11S 8152   6.046   0.308   4.361  0.0214 -1.8744  0.2661
  183OL    C112 8153   6.189   0.167   4.345 -0.6367  0.1815 -0.1009
  183OL    H12R 8154   6.114   0.096   4.310 -0.9650 -0.2450  1.3904
  183OL    H12S 8155   6.190   0.166   4.455 -1.3004 -0.6521 -0.0952
  183OL    C113 8156   6.321   0.131   4.274 -0.7755 -0.0617 -0.4908
  183OL    H13R 8157   6.402   0.199   4.298  0.9126 -2.0334 -0.2850
  183OL    H13S 8158   6.303   0.142   4.167  4.0915 -1.1020 -1.6377
  183OL    C114 8159   6.361  -0.011   4.312  0.1918 -0.4502 -0.3363
  183OL    H14R 8160   6.275  -0.078   4.307  0.0984 -0.2805 -1.2526
  183OL    H14S 8161   6.392  -0.005   4.417 -1.6467 -1.7371  0.3439
  183OL    C115 8162   6.475  -0.062   4.231  0.3162 -0.4577 -0.1119
  183OL    H15R 8163   6.559   0.005   4.248 -0.3065  0.1608  0.5695
  183OL    H15S 8164   6.448  -0.077   4.126  1.8291  2.3230 -1.0113
  183OL    C116 8165   6.519  -0.203   4.265  0.0678 -0.0476 -0.8982
  183OL    H16R 8166   6.429  -0.263   4.251 -2.3861  2.7383  1.5787
  183OL    H16S 8167   6.529  -0.207   4.374 -0.1243 -0.7278 -0.9027
  183OL    C117 8168   6.644  -0.242   4.191  0.1653 -0.5746  0.2233
  183OL    H17R 8169   6.722  -0.173   4.223 -1.5073  1.3595  0.3063
  183OL    H17S 8170   6.620  -0.235   4.084  0.2268 -0.6456  0.2049
  183OL    C118 8171   6.679  -0.383   4.235  0.0023  0.3215  0.3370
  183OL    H18R 8172   6.701  -0.402   4.340  3.3655  2.5606  0.1933
  183OL    H18S 8173   6.762  -0.421   4.176  0.8971  1.6844  0.6712
  183OL    H18T 8174   6.600  -0.452   4.204 -0.6992  0.7758  1.0647
  184PA    C116 8175   8.633   0.085   4.127  0.2670  0.1927 -0.2651
  184PA    H16R 8176   8.724   0.035   4.093  2.3234  2.5970  1.3454
  184PA    H16S 8177   8.643   0.190   4.101  0.1950  0.2095 -0.2266
  184PA    H16T 8178   8.551   0.053   4.063  0.1476  0.8840 -0.4716
  184PA    C115 8179   8.610   0.061   4.284  0.6439  0.2030 -0.0292
  184PA    H15R 8180   8.678  -0.019   4.316  2.0214  2.0612  2.0207
  184PA    H15S 8181   8.648   0.141   4.349 -0.2642  0.2696  0.4271
  184PA    C114 8182   8.460   0.042   4.321 -0.6216  0.6379  0.3250
  184PA    H14R 8183   8.422  -0.055   4.288  0.6200  0.1076  0.3858
  184PA    H14S 8184   8.465   0.035   4.430 -2.3163 -1.4876  0.3236
  184PA    C113 8185   8.363   0.163   4.283  0.1692 -0.2085 -1.2325
  184PA    H13R 8186   8.370   0.175   4.175 -1.2847 -2.5789 -1.6772
  184PA    H13S 8187   8.260   0.133   4.300 -0.1034  0.2915 -1.9879
  184PA    C112 8188   8.393   0.295   4.364 -0.0891 -0.1186  0.3323
  184PA    H12R 8189   8.496   0.329   4.359  0.3436 -1.5291 -2.0283
  184PA    H12S 8190   8.337   0.373   4.312  1.0703 -0.2757 -1.2142
  184PA    C111 8191   8.339   0.283   4.510 -0.3609  0.5004 -0.0186
  184PA    H11R 8192   8.239   0.240   4.511  0.4529 -1.4632  2.0278
  184PA    H11S 8193   8.405   0.210   4.554  0.0142  0.1962 -1.0548
  184PA    C110 8194   8.342   0.407   4.596 -0.9023  0.1283 -0.0495
  184PA    H10R 8195   8.437   0.459   4.588  1.0717 -3.1228  0.2475
  184PA    H10S 8196   8.274   0.479   4.550  0.8412  1.4276 -0.7043
  184PA     C19 8197   8.318   0.366   4.735 -0.0421 -1.1204 -0.6643
  184PA     H9R 8198   8.212   0.344   4.748 -0.4681  0.0623 -1.8609
  184PA     H9S 8199   8.377   0.277   4.758  0.9332 -0.1002  1.0325
  184PA     C18 8200   8.364   0.480   4.833 -0.2370 -0.5853 -1.4072
  184PA     H8R 8201   8.368   0.446   4.936 -3.3097  0.8833 -0.6879
  184PA     H8S 8202   8.462   0.515   4.801 -0.3442 -1.5792 -2.9673
  184PA     C17 8203   8.246   0.586   4.841 -0.4574  0.0198  0.2733
  184PA     H7R 8204   8.238   0.645   4.749  0.5222 -2.6211 -1.6495
  184PA     H7S 8205   8.148   0.539   4.852 -0.3531  0.0908  1.6343
  184PA     C16 8206   8.278   0.693   4.950 -0.0523  0.3705 -0.0492
  184PA     H6R 8207   8.307   0.644   5.043  1.3577  0.9886 -0.1472
  184PA     H6S 8208   8.366   0.750   4.919  0.2592  0.2436  0.5800
  184PA     C15 8209   8.152   0.776   4.991  0.4319  0.1376  0.3365
  184PA     H5R 8210   8.186   0.851   5.063 -2.7177  0.9200  1.1615
  184PA     H5S 8211   8.108   0.823   4.903  0.8392 -0.3632 -0.1445
  184PA     C14 8212   8.047   0.696   5.076 -0.0802  0.4234 -0.0098
  184PA     H4R 8213   8.001   0.619   5.014  0.5525  0.3896 -0.4468
  184PA     H4S 8214   8.102   0.656   5.162 -1.6119 -0.7850  0.4460
  184PA     C13 8215   7.941   0.790   5.136 -0.1111  0.0374 -0.4342
  184PA     H3R 8216   7.973   0.888   5.171 -0.5629  0.1307 -0.2881
  184PA     H3S 8217   7.873   0.816   5.054 -1.4805 -0.4628  0.5124
  184PA     C12 8218   7.857   0.718   5.238 -0.2070 -0.0988 -0.1948
  184PA     H2R 8219   7.825   0.619   5.206 -5.6616  1.1877  0.1619
  184PA     H2S 8220   7.922   0.701   5.324  0.1112  1.4975 -0.0885
  185PC     C11 8221   7.728   0.797   5.274 -0.9398 -0.1743 -0.1748
  185PC     O12 8222   7.665   0.869   5.198  0.2158 -0.0312 -0.1881
  185PC     O11 8223   7.713   0.796   5.405  0.1065 -0.4674 -0.8540
  185PC      C1 8224   7.641   0.903   5.476 -0.1061  0.2402 -0.4777
  185PC      HR 8225   7.708   0.963   5.538 -0.1683  0.9355 -1.0620
  185PC      HS 8226   7.601   0.972   5.401 -3.4346  1.7909  2.4304
  185PC      C2 8227   7.516   0.851   5.566 -0.1445 -0.0244  0.0678
  185PC      HX 8228   7.483   0.939   5.622  2.6408 -0.1687  2.1826
  185PC      C3 8229   7.545   0.748   5.673  0.1066  0.2025  0.0350
  185PC      HA 8230   7.582   0.652   5.634  1.8179  0.4313  1.0127
  185PC      HB 8231   7.615   0.791   5.744  1.5479 -2.0875  0.1161
  185PC     O31 8232   7.425   0.712   5.744  0.4325 -0.0408  0.3517
  185PC     P31 8233   7.344   0.818   5.824  0.2358 -0.1424  0.0638
  185PC     O32 8234   7.241   0.884   5.726 -0.2661 -0.0960 -0.5956
  185PC     C31 8235   7.119   0.815   5.696  0.4697 -0.0983  0.3617
  185PC     H1A 8236   7.090   0.862   5.602  2.9891 -0.3392 -0.6350
  185PC     H1B 8237   7.140   0.709   5.682 -0.6676 -0.2224 -0.4861
  185PC     C32 8238   7.012   0.842   5.809 -0.5193 -0.2285  0.4942
  185PC     H2A 8239   7.054   0.795   5.899 -0.2729  1.5011  1.3160
  185PC     H2B 8240   7.012   0.951   5.817 -0.8492 -0.0759 -1.2600
  185PC     N31 8241   6.877   0.794   5.801  0.3578  0.6984 -0.0344
  185PC     C33 8242   6.880   0.647   5.801 -0.3986  0.5121 -0.2349
  185PC     H3A 8243   6.925   0.619   5.896 -0.7749  0.2426 -0.1330
  185PC     H3B 8244   6.775   0.618   5.798 -0.0506 -0.7253 -1.0747
  185PC     H3C 8245   6.936   0.607   5.717 -1.2820 -1.5787  0.1260
  185PC     C34 8246   6.807   0.845   5.919  0.5140  0.3044  0.7397
  185PC     H4A 8247   6.706   0.805   5.907  0.5165  1.0544 -3.0347
  185PC     H4B 8248   6.861   0.804   6.005 -0.2796 -1.0117  0.6353
  185PC     H4C 8249   6.808   0.954   5.922 -0.8494  0.3652  4.2877
  185PC     C35 8250   6.795   0.844   5.684  0.3219 -0.8077  0.4088
  185PC     H5A 8251   6.766   0.947   5.707 -0.3125 -0.5518 -1.3733
  185PC     H5B 8252   6.702   0.788   5.680  1.2755 -2.3908 -1.2958
  185PC     H5C 8253   6.862   0.841   5.598  1.5374  1.2466  1.2015
  185PC     O33 8254   7.272   0.735   5.914  0.2503 -0.2337  0.1134
  185PC     O34 8255   7.429   0.918   5.886 -0.6792  0.3620 -0.2121
  185PC     O21 8256   7.421   0.793   5.472  0.5724 -0.1827  0.1363
  185PC     C21 8257   7.346   0.879   5.401  0.5437  0.6941  0.0646
  185PC     O22 8258   7.350   0.996   5.418 -0.5985  0.0125  0.0921
  186OL     C12 8259   7.258   0.807   5.296 -0.6154 -0.0162  0.4452
  186OL     H2R 8260   7.155   0.843   5.301 -0.5718  0.1935 -0.1159
  186OL     H2S 8261   7.274   0.701   5.317  1.3541  0.0368 -0.5416
  186OL     C13 8262   7.305   0.830   5.150 -0.5702  0.0385  0.2387
  186OL     H3R 8263   7.409   0.798   5.142 -0.0771  1.7823 -0.7782
  186OL     H3S 8264   7.299   0.937   5.134 -0.5971  0.5655  3.1851
  186OL     C14 8265   7.215   0.760   5.048  0.4016 -0.6079  0.2684
  186OL     H4R 8266   7.112   0.795   5.058  1.4136  2.5516  0.9562
  186OL     H4S 8267   7.222   0.652   5.059  3.4332 -0.4261  1.1840
  186OL     C15 8268   7.257   0.795   4.903 -0.3269 -0.2855 -0.2560
  186OL     H5R 8269   7.278   0.902   4.905  0.2789 -0.4041  1.0577
  186OL     H5S 8270   7.171   0.775   4.838  1.1505 -3.9209 -1.3637
  186OL     C16 8271   7.385   0.716   4.863 -0.3437  0.2280  0.6517
  186OL     H6R 8272   7.357   0.611   4.869 -0.2192  0.1000 -0.6978
  186OL     H6S 8273   7.460   0.726   4.941  1.0657  0.0327 -0.6261
  186OL     C17 8274   7.425   0.758   4.722  0.1541  0.1543  0.9776
  186OL     H7R 8275   7.458   0.861   4.707 -2.1679  0.5381 -3.2372
  186OL     H7S 8276   7.333   0.748   4.664  0.5434 -1.2980  0.5696
  186OL     C18 8277   7.547   0.674   4.677 -0.8128  0.0009  0.0651
  186OL     H8R 8278   7.574   0.675   4.571  1.6738  0.0154  0.6266
  186OL     H8S 8279   7.524   0.569   4.694  0.7520  0.1380  3.8171
  186OL     C19 8280   7.665   0.696   4.774 -0.7398  0.7275  0.6718
  186OL     H9R 8281   7.638   0.699   4.880  0.9167  1.4065  1.1141
  186OL    C110 8282   7.796   0.715   4.745  0.0546  0.1661 -0.5601
  186OL    H10R 8283   7.870   0.736   4.821  1.9050 -0.8355 -2.0022
  186OL    C111 8284   7.859   0.724   4.608  0.1131 -0.2425  0.0183
  186OL    H11R 8285   7.920   0.815   4.607  2.3386 -1.5736 -3.0967
  186OL    H11S 8286   7.776   0.742   4.539 -0.7668 -1.3773  0.7411
  186OL    C112 8287   7.951   0.611   4.569 -0.4437  0.1452 -0.1546
  186OL    H12R 8288   8.034   0.593   4.638  0.0086 -0.9174 -0.9466
  186OL    H12S 8289   8.004   0.634   4.477  1.0203  0.2943  0.6938
  186OL    C113 8290   7.879   0.474   4.553 -0.1440  0.0937 -0.0189
  186OL    H13R 8291   7.785   0.485   4.498  1.0296 -0.0462 -2.1487
  186OL    H13S 8292   7.859   0.444   4.656 -0.9556 -1.2227 -0.5198
  186OL    C114 8293   7.974   0.379   4.482 -0.1239 -0.0989 -0.1622
  186OL    H14R 8294   7.935   0.280   4.507 -3.5878  1.4201  0.9252
  186OL    H14S 8295   8.070   0.392   4.533  0.0787  0.4893 -0.6872
  186OL    C115 8296   7.989   0.397   4.330  0.8679 -0.5764 -0.4582
  186OL    H15R 8297   8.059   0.317   4.309  2.8065  0.9574 -0.1194
  186OL    H15S 8298   8.037   0.493   4.308  2.2612 -0.2712  3.2813
  186OL    C116 8299   7.859   0.387   4.244 -0.2565  0.2334  0.9646
  186OL    H16R 8300   7.808   0.481   4.267 -0.1839  0.3404  0.6982
  186OL    H16S 8301   7.797   0.301   4.269 -0.0430  0.2612  1.5879
  186OL    C117 8302   7.885   0.393   4.096 -0.4861  0.3556 -0.3897
  186OL    H17R 8303   7.950   0.311   4.064  0.5893  1.3945 -0.9384
  186OL    H17S 8304   7.940   0.484   4.071  0.3868 -0.2483 -0.7258
  186OL    C118 8305   7.761   0.394   3.997 -0.3173 -0.5289 -0.6401
  186OL    H18R 8306   7.690   0.473   4.022 -2.9220 -2.3911 -1.7031
  186OL    H18S 8307   7.702   0.303   4.000 -1.8444  0.4323 -0.7154
  186OL    H18T 8308   7.806   0.406   3.898 -0.9246 -2.3720 -1.1715
  187PA    C116 8309   2.655  -0.916   4.525  0.4833 -0.8125  0.0585
  187PA    H16R 8310   2.670  -1.006   4.465  2.6388  1.2066 -2.6965
  187PA    H16S 8311   2.614  -0.944   4.622 -1.4738 -1.7089 -0.9569
  187PA    H16T 8312   2.754  -0.870   4.535 -0.0022  0.2396  0.2346
  187PA    C115 8313   2.560  -0.814   4.452  0.3683 -0.7218 -0.2110
  187PA    H15R 8314   2.579  -0.714   4.492 -0.3373 -0.4058 -0.6383
  187PA    H15S 8315   2.596  -0.806   4.349  0.6578  0.2338 -0.0446
  187PA    C114 8316   2.409  -0.828   4.463 -0.2257 -0.2129  0.5274
  187PA    H14R 8317   2.376  -0.811   4.566 -0.7102  4.8821 -0.1788
  187PA    H14S 8318   2.364  -0.753   4.398 -0.9248 -0.2959  0.9036
  187PA    C113 8319   2.365  -0.972   4.421 -0.2865 -0.6501 -0.0792
  187PA    H13R 8320   2.357  -0.972   4.312 -1.3184  1.5911 -0.0737
  187PA    H13S 8321   2.442  -1.043   4.451  2.4951  1.0344 -2.6376
  187PA    C112 8322   2.236  -1.012   4.480  0.0190  0.4504  0.0810
  187PA    H12R 8323   2.166  -0.929   4.492 -0.2737  0.1673  0.3521
  187PA    H12S 8324   2.192  -1.090   4.418  1.9070 -0.9049  0.3486
  187PA    C111 8325   2.259  -1.066   4.617  0.2419 -0.3298 -0.1031
  187PA    H11R 8326   2.322  -1.154   4.603 -0.1213 -0.5749 -0.2254
  187PA    H11S 8327   2.328  -0.997   4.666 -0.9072  0.2939  0.6837
  187PA    C110 8328   2.140  -1.111   4.712 -0.0013  0.4545 -0.7402
  187PA    H10R 8329   2.062  -1.034   4.712  0.7040  1.2283  1.5327
  187PA    H10S 8330   2.093  -1.197   4.664  2.2473 -0.2462 -1.8331
  187PA     C19 8331   2.182  -1.139   4.858 -0.1158  0.2517 -0.4198
  187PA     H9R 8332   2.257  -1.218   4.860 -0.3793  0.0143  0.3101
  187PA     H9S 8333   2.220  -1.053   4.912 -1.3916 -1.3168  3.3220
  187PA     C18 8334   2.064  -1.196   4.937 -0.2680 -0.0757  0.0142
  187PA     H8R 8335   1.988  -1.120   4.952  1.0500  2.0139 -2.9097
  187PA     H8S 8336   2.011  -1.280   4.891 -0.2057 -0.7298  1.0934
  187PA     C17 8337   2.111  -1.260   5.073  0.1564  0.1368 -0.1224
  187PA     H7R 8338   2.025  -1.297   5.129  0.6592 -0.2057  0.4253
  187PA     H7S 8339   2.175  -1.347   5.058 -2.6083 -2.5567  2.2219
  187PA     C16 8340   2.192  -1.167   5.159  0.2454 -0.3624  0.6664
  187PA     H6R 8341   2.241  -1.226   5.237 -0.4561 -2.4755 -0.3881
  187PA     H6S 8342   2.277  -1.128   5.104 -0.9143  0.5898 -0.4975
  187PA     C15 8343   2.101  -1.051   5.218  0.2281  0.1543 -0.2933
  187PA     H5R 8344   2.052  -0.991   5.141 -4.0999 -0.2804  1.8548
  187PA     H5S 8345   2.017  -1.091   5.275  2.5222 -2.8550  1.2646
  187PA     C14 8346   2.194  -0.953   5.300  0.2844 -0.2397  0.9049
  187PA     H4R 8347   2.281  -1.015   5.325  0.7988 -1.0557 -2.4698
  187PA     H4S 8348   2.233  -0.877   5.231 -0.7764 -0.1579  0.3832
  187PA     C13 8349   2.136  -0.888   5.431  0.2824 -0.0207 -0.2717
  187PA     H3R 8350   2.213  -0.827   5.478  0.5639 -1.7152  1.6219
  187PA     H3S 8351   2.051  -0.824   5.407  0.6782  0.8869  0.7255
  187PA     C12 8352   2.096  -1.001   5.533 -0.3008 -0.4496 -0.5179
  187PA     H2R 8353   2.017  -1.060   5.485 -0.1206 -0.0771 -1.2814
  187PA     H2S 8354   2.181  -1.068   5.544  0.5072  0.7299  0.6519
  188PC     C11 8355   2.052  -0.962   5.673 -0.0461  0.1813  0.3023
  188PC     O12 8356   2.114  -0.985   5.774  0.2397  0.2856 -0.1705
  188PC     O11 8357   1.935  -0.894   5.677  0.4644  0.3669 -0.5352
  188PC      C1 8358   1.873  -0.860   5.800  0.1084  0.2985 -0.4343
  188PC      HR 8359   1.769  -0.834   5.782  0.4627  0.9961 -1.6211
  188PC      HS 8360   1.880  -0.937   5.877  1.4383  0.3966 -0.4329
  188PC      C2 8361   1.945  -0.733   5.851  0.5364  0.0712  0.4425
  188PC      HX 8362   2.052  -0.755   5.856  0.4570 -0.7482 -0.7409
  188PC      C3 8363   1.899  -0.700   5.990  0.0433  0.0526  0.1168
  188PC      HA 8364   1.979  -0.733   6.057  1.8380  0.7784 -1.5798
  188PC      HB 8365   1.899  -0.593   6.013  1.1561 -0.1366  1.1125
  188PC     O31 8366   1.778  -0.761   6.031  0.0821  0.1684  0.1992
  188PC     P31 8367   1.740  -0.796   6.188 -0.2442 -0.0063  0.2079
  188PC     O32 8368   1.798  -0.939   6.220  0.0190 -0.5868  0.3433
  188PC     C31 8369   1.736  -1.060   6.176  0.6225 -0.4570  0.1125
  188PC     H1A 8370   1.643  -1.042   6.122  0.4701 -0.3963  0.3888
  188PC     H1B 8371   1.791  -1.126   6.109 -0.7385 -1.7554  0.2162
  188PC     C32 8372   1.691  -1.135   6.307  0.2730 -0.7638  0.5747
  188PC     H2A 8373   1.661  -1.049   6.368  2.9918  0.7206 -0.0344
  188PC     H2B 8374   1.600  -1.190   6.281 -0.0279  0.6424 -1.6587
  188PC     N31 8375   1.785  -1.216   6.388 -0.5071  0.2825 -0.0824
  188PC     C33 8376   1.844  -1.333   6.314  0.2095  0.0674 -0.1731
  188PC     H3A 8377   1.928  -1.298   6.253 -0.4589 -0.7888 -1.6289
  188PC     H3B 8378   1.882  -1.410   6.382 -2.3492  0.0618  1.3821
  188PC     H3C 8379   1.773  -1.384   6.250  1.8937  0.9854 -2.9628
  188PC     C34 8380   1.897  -1.135   6.434 -0.3030 -0.6626 -0.3089
  188PC     H4A 8381   1.977  -1.201   6.467 -0.2270 -2.7680 -4.0274
  188PC     H4B 8382   1.925  -1.069   6.351  1.5943 -0.4767  0.4363
  188PC     H4C 8383   1.854  -1.074   6.514 -0.6462  0.1131 -1.0645
  188PC     C35 8384   1.705  -1.272   6.501 -0.3856  0.0384 -0.0689
  188PC     H5A 8385   1.648  -1.357   6.465  1.0984 -0.7435 -0.6714
  188PC     H5B 8386   1.642  -1.197   6.548  0.3447  0.7312 -0.1780
  188PC     H5C 8387   1.776  -1.315   6.572 -0.7776 -0.5154 -0.0055
  188PC     O33 8388   1.805  -0.697   6.275  0.6941 -0.5378 -0.1047
  188PC     O34 8389   1.592  -0.795   6.199 -0.4951 -0.3774  0.2251
  188PC     O21 8390   1.922  -0.620   5.765  0.1317 -0.0746 -0.2274
  188PC     C21 8391   2.025  -0.573   5.694 -0.5147  0.1940 -0.3279
  188PC     O22 8392   2.137  -0.632   5.685  0.5245 -0.3269  0.9485
  189OL     C12 8393   2.001  -0.431   5.636 -0.4771 -0.6809 -0.9135
  189OL     H2R 8394   2.095  -0.377   5.626 -1.8100  1.7233 -1.0711
  189OL     H2S 8395   1.963  -0.378   5.723  0.5950  1.6839 -1.8040
  189OL     C13 8396   1.914  -0.420   5.512  0.5698 -0.3701 -0.0109
  189OL     H3R 8397   1.905  -0.314   5.487 -0.9102 -0.6128 -0.5940
  189OL     H3S 8398   1.810  -0.446   5.533  0.9613 -0.1399  2.6465
  189OL     C14 8399   1.966  -0.491   5.386  0.1376  0.2146 -0.6022
  189OL     H4R 8400   1.984  -0.598   5.404  2.5919  0.2213 -2.4719
  189OL     H4S 8401   2.060  -0.453   5.345  0.9487 -0.7398  0.3172
  189OL     C15 8402   1.863  -0.487   5.273  0.5589 -0.0501  0.2869
  189OL     H5R 8403   1.884  -0.394   5.219 -1.0357  0.4926  0.5448
  189OL     H5S 8404   1.762  -0.485   5.315 -0.1959 -2.4661 -1.2114
  189OL     C16 8405   1.865  -0.617   5.183  0.7633  0.1717 -0.3552
  189OL     H6R 8406   1.822  -0.698   5.243  0.4164  0.6255  0.0183
  189OL     H6S 8407   1.967  -0.641   5.152  0.6262  1.5872 -2.0541
  189OL     C17 8408   1.766  -0.608   5.066 -0.4286 -0.3981  0.7325
  189OL     H7R 8409   1.794  -0.528   4.996 -3.4547 -0.2312 -0.4486
  189OL     H7S 8410   1.667  -0.575   5.098 -0.2413 -0.5853  1.5297
  189OL     C18 8411   1.759  -0.737   4.981 -0.3822  0.1548  0.2794
  189OL     H8R 8412   1.669  -0.728   4.920 -0.6182 -0.2500  0.5572
  189OL     H8S 8413   1.734  -0.813   5.056  1.4325 -1.2994 -0.5033
  189OL     C19 8414   1.874  -0.798   4.900 -0.2489  0.6407 -0.0835
  189OL     H9R 8415   1.936  -0.869   4.954  1.7740  1.4688 -1.2000
  189OL    C110 8416   1.899  -0.770   4.771 -0.5138  0.0702  0.4187
  189OL    H10R 8417   1.983  -0.820   4.723  0.0730  1.7741 -0.4479
  189OL    C111 8418   1.841  -0.658   4.688  0.4061 -0.1980 -0.3356
  189OL    H11R 8419   1.852  -0.568   4.750 -1.6287  1.4695 -2.2564
  189OL    H11S 8420   1.734  -0.667   4.669  0.3232  0.3298 -0.1363
  189OL    C112 8421   1.897  -0.632   4.551  0.3027  0.1875 -0.2804
  189OL    H12R 8422   2.001  -0.604   4.572 -0.1106  2.6261 -1.1867
  189OL    H12S 8423   1.855  -0.536   4.520 -0.4943 -0.2116 -0.4418
  189OL    C113 8424   1.895  -0.750   4.452  0.0814  0.2785  0.5704
  189OL    H13R 8425   1.791  -0.778   4.437 -0.0393  1.6282 -1.4250
  189OL    H13S 8426   1.941  -0.837   4.499 -1.0650 -1.1531 -0.8785
  189OL    C114 8427   1.960  -0.730   4.316 -0.5667  0.4555  1.0187
  189OL    H14R 8428   2.063  -0.697   4.332  0.7139 -1.3354 -2.5377
  189OL    H14S 8429   1.899  -0.662   4.256 -0.6461 -1.2276 -0.9403
  189OL    C115 8430   1.968  -0.854   4.236  0.8483  0.1081 -0.2351
  189OL    H15R 8431   1.866  -0.882   4.208  0.2016  0.8206  1.3393
  189OL    H15S 8432   2.003  -0.937   4.298  0.1361  1.0152  1.4454
  189OL    C116 8433   2.049  -0.852   4.108  0.1838  0.7523 -0.2913
  189OL    H16R 8434   2.049  -0.952   4.064 -2.0373 -0.3524  1.9363
  189OL    H16S 8435   2.150  -0.832   4.143 -0.8938  2.8733  1.9297
  189OL    C117 8436   2.018  -0.743   4.002  0.3707  0.0863  0.9945
  189OL    H17R 8437   2.083  -0.764   3.917 -0.1232 -0.6861  0.8004
  189OL    H17S 8438   2.040  -0.640   4.031 -0.2271 -0.4706  3.6627
  189OL    C118 8439   1.874  -0.747   3.954 -0.1503 -0.3219  0.0917
  189OL    H18R 8440   1.861  -0.677   3.871 -1.8496  0.9220  1.3314
  189OL    H18S 8441   1.799  -0.723   4.030  0.2312 -1.9519  1.0185
  189OL    H18T 8442   1.851  -0.846   3.915  1.9946 -1.5746  1.7981
  190PA    C116 8443   2.900  -0.167   4.123  0.2700 -0.1719  0.1145
  190PA    H16R 8444   2.880  -0.067   4.083  1.0540 -0.1989 -0.3729
  190PA    H16S 8445   2.850  -0.240   4.058  1.6260  0.0571 -1.2448
  190PA    H16T 8446   3.007  -0.181   4.106  0.0207 -0.1022 -1.7690
  190PA    C115 8447   2.851  -0.185   4.267 -0.5273  0.7173 -0.3617
  190PA    H15R 8448   2.746  -0.163   4.281  0.0485  4.5828 -1.0047
  190PA    H15S 8449   2.869  -0.290   4.292  2.9043  1.0958 -0.7347
  190PA    C114 8450   2.942  -0.099   4.359  0.2321  0.0952 -0.3105
  190PA    H14R 8451   3.043  -0.140   4.358  0.2708  0.1931 -0.6341
  190PA    H14S 8452   2.950   0.001   4.317 -1.9565  1.0432  1.3267
  190PA    C113 8453   2.873  -0.073   4.496  0.2139  0.2340  0.1050
  190PA    H13R 8454   2.935  -0.002   4.552 -0.1832  0.7407 -0.0929
  190PA    H13S 8455   2.771  -0.036   4.487  0.5474  1.7371  1.7979
  190PA    C112 8456   2.853  -0.195   4.590 -0.9151  0.5177  0.0803
  190PA    H12R 8457   2.772  -0.260   4.556  0.2980 -1.3252  0.5499
  190PA    H12S 8458   2.944  -0.256   4.586 -0.5593  1.0399  0.0463
  190PA    C111 8459   2.839  -0.155   4.738  0.6525  0.4763  0.4450
  190PA    H11R 8460   2.935  -0.116   4.773  1.5655 -1.0538 -0.2467
  190PA    H11S 8461   2.766  -0.073   4.740  1.6832  1.5530 -1.8001
  190PA    C110 8462   2.794  -0.264   4.831  0.3900 -0.0193  0.2925
  190PA    H10R 8463   2.693  -0.288   4.795 -0.7943  3.4878  0.9060
  190PA    H10S 8464   2.860  -0.350   4.818  1.0405  0.7135 -1.6152
  190PA     C19 8465   2.795  -0.220   4.979  0.6513  1.1808 -0.6302
  190PA     H9R 8466   2.895  -0.216   5.022 -0.4015  2.0282  1.8908
  190PA     H9S 8467   2.756  -0.118   4.984  0.3481  1.0365  0.0462
  190PA     C18 8468   2.711  -0.321   5.068 -0.4802 -0.4210 -0.5250
  190PA     H8R 8469   2.730  -0.426   5.047 -2.6658 -1.2434  1.1835
  190PA     H8S 8470   2.738  -0.310   5.173  0.3549  3.4352 -0.9762
  190PA     C17 8471   2.557  -0.293   5.057 -0.2244  1.0367  0.3624
  190PA     H7R 8472   2.551  -0.184   5.066  0.7485  1.0873  0.5356
  190PA     H7S 8473   2.523  -0.315   4.955  2.0361  0.9214 -0.4373
  190PA     C16 8474   2.468  -0.366   5.151  0.3689 -0.2302 -0.1934
  190PA     H6R 8475   2.367  -0.328   5.134  0.0056 -2.1494 -2.9078
  190PA     H6S 8476   2.467  -0.469   5.116 -1.4715  0.6196 -2.9650
  190PA     C15 8477   2.500  -0.343   5.295 -0.4048 -0.6170  1.0253
  190PA     H5R 8478   2.597  -0.383   5.322  0.5875  1.1770  0.3328
  190PA     H5S 8479   2.516  -0.235   5.308  2.3580 -0.5486 -1.7598
  190PA     C14 8480   2.385  -0.390   5.386 -0.0284  0.3703  0.3741
  190PA     H4R 8481   2.422  -0.371   5.487  0.0985 -1.4603  0.6960
  190PA     H4S 8482   2.289  -0.339   5.369 -0.7393 -1.2649 -0.7704
  190PA     C13 8483   2.342  -0.549   5.365 -0.1019 -0.5887  0.4151
  190PA     H3R 8484   2.259  -0.564   5.434  2.1461  1.4851  3.8895
  190PA     H3S 8485   2.311  -0.571   5.263  0.7683 -1.0218  0.2319
  190PA     C12 8486   2.459  -0.644   5.403  0.3002  0.4591 -0.1034
  190PA     H2R 8487   2.442  -0.743   5.360 -1.8932  1.9133 -2.9348
  190PA     H2S 8488   2.554  -0.618   5.356  1.7995 -1.7750  1.4907
  191PC     C11 8489   2.469  -0.659   5.553 -0.5244 -0.5760 -0.3418
  191PC     O12 8490   2.504  -0.575   5.634  1.3032 -0.2305 -0.5982
  191PC     O11 8491   2.446  -0.782   5.593 -0.1432 -0.4429  0.3575
  191PC      C1 8492   2.425  -0.818   5.735  0.1165 -0.2065  0.2144
  191PC      HR 8493   2.506  -0.773   5.793  0.4778 -1.2871  0.5692
  191PC      HS 8494   2.329  -0.775   5.765 -0.1810  0.3669 -1.4418
  191PC      C2 8495   2.428  -0.973   5.743 -0.1445 -0.3117 -0.4205
  191PC      HX 8496   2.345  -1.010   5.681 -0.2943  0.1935 -0.5289
  191PC      C3 8497   2.399  -1.010   5.894  0.1795  0.3755 -0.8360
  191PC      HA 8498   2.296  -0.991   5.926  0.9383 -0.3058  2.3023
  191PC      HB 8499   2.429  -1.114   5.904  2.3213  0.7829 -2.3863
  191PC     O31 8500   2.487  -0.940   5.978 -0.2702 -0.1485 -0.2158
  191PC     P31 8501   2.443  -0.888   6.124 -0.0686 -0.0669  0.3671
  191PC     O32 8502   2.351  -0.757   6.099 -0.0183  0.9464  0.0739
  191PC     C31 8503   2.391  -0.630   6.051 -0.4029  0.5662  0.1370
  191PC     H1A 8504   2.456  -0.631   5.963  0.4480 -0.5571  0.7584
  191PC     H1B 8505   2.298  -0.582   6.017 -0.3858 -0.6971 -1.8803
  191PC     C32 8506   2.461  -0.546   6.164  0.3153 -0.2372 -0.4329
  191PC     H2A 8507   2.536  -0.608   6.212  1.1135  1.1817  0.2010
  191PC     H2B 8508   2.514  -0.458   6.126 -0.8169  0.1026 -1.3084
  191PC     N31 8509   2.380  -0.492   6.284 -0.1140 -0.6610 -0.0791
  191PC     C33 8510   2.475  -0.414   6.376  0.7557 -0.7113 -0.0762
  191PC     H3A 8511   2.539  -0.484   6.429  2.5470 -0.8634 -2.3074
  191PC     H3B 8512   2.533  -0.350   6.310 -0.7471  0.3581 -0.4270
  191PC     H3C 8513   2.411  -0.349   6.436 -0.0796 -2.1856  0.6825
  191PC     C34 8514   2.276  -0.413   6.220  0.4279  0.2646 -1.1401
  191PC     H4A 8515   2.320  -0.323   6.176  0.5420  1.4293  1.1601
  191PC     H4B 8516   2.225  -0.463   6.138  2.7981 -2.5090 -1.0796
  191PC     H4C 8517   2.200  -0.397   6.298  1.7207 -1.4559  0.5590
  191PC     C35 8518   2.320  -0.608   6.355  0.1283 -0.1517 -0.2196
  191PC     H5A 8519   2.400  -0.681   6.371  0.8972  0.3129 -1.7639
  191PC     H5B 8520   2.234  -0.639   6.296 -2.5318  0.4277  3.0739
  191PC     H5C 8521   2.291  -0.582   6.457  0.0101 -2.3562  0.3746
  191PC     O33 8522   2.342  -0.990   6.166  0.0775  0.7551  0.1908
  191PC     O34 8523   2.563  -0.856   6.205  0.0913  0.0710  0.2928
  191PC     O21 8524   2.558  -1.019   5.686  0.4150 -0.6949 -0.2195
  191PC     C21 8525   2.560  -1.143   5.630  0.3607 -0.2821  0.5024
  191PC     O22 8526   2.465  -1.222   5.640  0.3974 -0.1253 -0.6272
  192OL     C12 8527   2.685  -1.180   5.559 -0.5030  0.2844  0.3907
  192OL     H2R 8528   2.665  -1.276   5.512  1.8156  0.7054 -1.6661
  192OL     H2S 8529   2.770  -1.218   5.615 -0.8933 -0.0587  0.7599
  192OL     C13 8530   2.728  -1.081   5.451  0.3634 -0.2219  0.2048
  192OL     H3R 8531   2.808  -1.124   5.389 -0.3620 -0.4033 -0.6146
  192OL     H3S 8532   2.769  -0.989   5.493 -0.1675  0.3871 -0.5914
  192OL     C14 8533   2.621  -1.044   5.348 -0.2889  0.2422 -0.0357
  192OL     H4R 8534   2.540  -0.985   5.392 -2.8831 -1.6973 -1.9144
  192OL     H4S 8535   2.580  -1.141   5.322  0.7277  0.1134 -1.2607
  192OL     C15 8536   2.687  -0.973   5.227  0.0162  0.2931  0.2186
  192OL     H5R 8537   2.754  -0.897   5.268  0.1142 -0.8031  2.1932
  192OL     H5S 8538   2.603  -0.931   5.171  0.8592  0.1470 -1.1876
  192OL     C16 8539   2.764  -1.070   5.136 -1.2690  0.2304  0.2496
  192OL     H6R 8540   2.859  -1.094   5.184 -1.6769 -2.3928 -0.1293
  192OL     H6S 8541   2.801  -1.029   5.041 -0.9717 -0.0093  0.2591
  192OL     C17 8542   2.696  -1.205   5.109 -0.1412 -0.2505 -0.8587
  192OL     H7R 8543   2.686  -1.266   5.199  0.8566  0.2682 -0.3729
  192OL     H7S 8544   2.763  -1.265   5.047 -0.7034  0.5391 -2.2621
  192OL     C18 8545   2.563  -1.191   5.039 -0.0131 -0.5653 -0.0143
  192OL     H8R 8546   2.588  -1.136   4.948 -0.9702 -0.7935 -0.4258
  192OL     H8S 8547   2.489  -1.127   5.088 -0.4872 -0.8825 -0.3043
  192OL     C19 8548   2.503  -1.325   5.025  0.3282  0.3622 -0.1880
  192OL     H9R 8549   2.450  -1.358   5.114  0.2780 -1.3573 -0.8062
  192OL    C110 8550   2.513  -1.412   4.919 -0.0803  0.2255  0.2334
  192OL    H10R 8551   2.460  -1.507   4.926 -1.7869  1.0189 -1.3072
  192OL    C111 8552   2.578  -1.391   4.785  0.0975 -0.5196 -0.1256
  192OL    H11R 8553   2.666  -1.455   4.782  0.7788  0.2823  1.3986
  192OL    H11S 8554   2.618  -1.290   4.778 -1.5545  0.2526  0.7868
  192OL    C112 8555   2.486  -1.430   4.674  0.4914 -0.1918 -0.5847
  192OL    H12R 8556   2.402  -1.361   4.667  1.7576  1.5279  0.2481
  192OL    H12S 8557   2.451  -1.533   4.684 -1.1230  0.4004  0.2329
  192OL    C113 8558   2.561  -1.422   4.544  0.0168 -0.5857 -0.0705
  192OL    H13R 8559   2.618  -1.329   4.535  0.6286 -0.7079  2.0703
  192OL    H13S 8560   2.487  -1.433   4.464  0.8264 -1.5147 -0.7292
  192OL    C114 8561   2.650  -1.543   4.504 -0.3654 -0.4724 -0.3600
  192OL    H14R 8562   2.619  -1.638   4.547 -0.8784  0.5908  1.7299
  192OL    H14S 8563   2.749  -1.513   4.540 -0.8283  2.7936 -1.4609
  192OL    C115 8564   2.676  -1.559   4.352  0.8824  0.3701 -0.1171
  192OL    H15R 8565   2.725  -1.466   4.320 -2.1474  1.5293 -1.8175
  192OL    H15S 8566   2.585  -1.573   4.293  2.2931 -1.1181 -2.0863
  192OL    C116 8567   2.767  -1.676   4.321 -0.0832  0.8355  0.4360
  192OL    H16R 8568   2.732  -1.770   4.365 -0.8159  0.6880 -0.4326
  192OL    H16S 8569   2.859  -1.654   4.374 -0.0815  0.1494  0.7272
  192OL    C117 8570   2.794  -1.694   4.169  0.8676  0.0071  0.0678
  192OL    H17R 8571   2.900  -1.722   4.168  1.0780  0.7687  0.3190
  192OL    H17S 8572   2.784  -1.601   4.114  1.2687 -0.6671 -1.1829
  192OL    C118 8573   2.707  -1.800   4.107 -0.5520 -0.4365  0.3945
  192OL    H18R 8574   2.731  -1.903   4.135  0.8478 -0.7321 -1.6723
  192OL    H18S 8575   2.710  -1.802   3.998  0.7832 -1.0417  0.4244
  192OL    H18T 8576   2.599  -1.789   4.123 -0.6265 -2.1949  1.4169
  193PA    C116 8577   1.830   0.489   2.934  0.1489 -0.0413  0.0677
  193PA    H16R 8578   1.899   0.483   2.849 -0.0755 -3.2422  0.0123
  193PA    H16S 8579   1.816   0.589   2.974 -2.0683 -0.0111 -0.6544
  193PA    H16T 8580   1.731   0.463   2.896  0.0834  1.4411 -0.8824
  193PA    C115 8581   1.882   0.400   3.043  0.7060  0.6055  0.8154
  193PA    H15R 8582   1.817   0.414   3.130 -0.4420  0.0700  0.0506
  193PA    H15S 8583   1.859   0.298   3.014  1.5451  1.2558 -2.5338
  193PA    C114 8584   2.034   0.430   3.071 -0.0906 -0.4548  0.5555
  193PA    H14R 8585   2.090   0.407   2.980  0.4110 -0.3536  0.8363
  193PA    H14S 8586   2.050   0.535   3.096 -0.1182  0.8304 -3.8918
  193PA    C113 8587   2.081   0.346   3.188 -0.2210  0.0039  0.6820
  193PA    H13R 8588   2.030   0.381   3.277 -2.5675 -3.7960  1.0292
  193PA    H13S 8589   2.060   0.241   3.166  2.5530 -0.1018 -2.2602
  193PA    C112 8590   2.232   0.370   3.205 -0.0610 -0.2253 -0.6262
  193PA    H12R 8591   2.256   0.476   3.215  3.2560 -0.8736 -0.5430
  193PA    H12S 8592   2.260   0.325   3.301 -1.1593  0.6568  0.1365
  193PA    C111 8593   2.320   0.307   3.093  0.5548 -0.1525  0.3934
  193PA    H11R 8594   2.312   0.198   3.086 -0.1521 -0.0153 -1.5627
  193PA    H11S 8595   2.287   0.361   3.004 -1.9148  1.6156  2.2425
  193PA    C110 8596   2.458   0.355   3.119 -0.0405  0.3518  0.3666
  193PA    H10R 8597   2.473   0.463   3.114 -0.9789  0.4571 -0.4742
  193PA    H10S 8598   2.495   0.333   3.219 -0.8684  0.1082  0.6231
  193PA     C19 8599   2.564   0.288   3.021  0.2391  0.3824  0.3836
  193PA     H9R 8600   2.659   0.296   3.074  0.2154 -0.1512  0.5114
  193PA     H9S 8601   2.522   0.190   3.001 -0.2610  0.4760  0.9745
  193PA     C18 8602   2.581   0.382   2.893  0.4438 -1.0960 -0.2372
  193PA     H8R 8603   2.483   0.395   2.846  0.2508 -0.1671  0.3916
  193PA     H8S 8604   2.603   0.483   2.928  0.2096 -1.0155 -0.3200
  193PA     C17 8605   2.693   0.342   2.793 -0.3177 -0.2734 -0.1492
  193PA     H7R 8606   2.787   0.325   2.846  0.1087  0.7078 -0.5542
  193PA     H7S 8607   2.668   0.251   2.738 -2.3672  0.8765 -1.2579
  193PA     C16 8608   2.710   0.451   2.692 -0.2579 -0.1942 -0.6227
  193PA     H6R 8609   2.614   0.502   2.687  0.0853  0.9233  2.2720
  193PA     H6S 8610   2.772   0.533   2.728 -0.8832  0.5063 -1.1014
  193PA     C15 8611   2.774   0.408   2.562 -0.2651  0.0516 -0.1645
  193PA     H5R 8612   2.695   0.344   2.523 -0.5514 -0.5418  1.3258
  193PA     H5S 8613   2.778   0.495   2.496 -0.5966  1.4619  1.5788
  193PA     C14 8614   2.904   0.335   2.565 -0.1668  0.2388 -0.1917
  193PA     H4R 8615   2.888   0.234   2.604 -0.5087 -0.0485 -1.0539
  193PA     H4S 8616   2.929   0.319   2.460 -0.9128  0.9226 -0.4881
  193PA     C13 8617   3.014   0.398   2.648  0.2005  0.2471  0.0442
  193PA     H3R 8618   3.059   0.491   2.613  0.6891  0.5390  1.3576
  193PA     H3S 8619   2.961   0.416   2.742 -1.4707 -0.9874 -0.6287
  193PA     C12 8620   3.127   0.298   2.683  0.1425  0.0454 -0.1585
  193PA     H2R 8621   3.177   0.335   2.773 -2.3822 -0.5718  1.6306
  193PA     H2S 8622   3.083   0.204   2.719  0.6869 -0.6678 -1.3129
  194PC     C11 8623   3.224   0.271   2.574 -0.0533  0.1730  0.6008
  194PC     O12 8624   3.191   0.263   2.455 -0.7961 -0.2160 -0.6955
  194PC     O11 8625   3.354   0.258   2.612  0.0683 -0.3448 -0.1507
  194PC      C1 8626   3.457   0.214   2.526  0.4458 -0.4918 -0.8095
  194PC      HR 8627   3.530   0.162   2.589 -0.9437 -0.4659  0.8899
  194PC      HS 8628   3.415   0.139   2.458 -1.7581  0.4988 -0.6087
  194PC      C2 8629   3.520   0.336   2.445 -0.2678 -0.1557 -0.4257
  194PC      HX 8630   3.441   0.402   2.409  0.6901  1.5581  0.4803
  194PC      C3 8631   3.605   0.302   2.321 -0.2604  0.4917  1.0788
  194PC      HA 8632   3.635   0.398   2.279 -1.5500  0.5688  0.2433
  194PC      HB 8633   3.687   0.237   2.350  3.1030  4.0951  0.3703
  194PC     O31 8634   3.514   0.243   2.217  0.1748  0.4146  0.1183
  194PC     P31 8635   3.450   0.338   2.097  0.0242  0.2451 -0.6318
  194PC     O32 8636   3.571   0.372   2.004  0.3097 -0.7229  0.4028
  194PC     C31 8637   3.625   0.285   1.902 -0.4097 -0.0197  0.2766
  194PC     H1A 8638   3.693   0.207   1.937 -0.4394  0.0145  0.4099
  194PC     H1B 8639   3.537   0.246   1.852 -0.3333 -2.5168  1.9233
  194PC     C32 8640   3.719   0.354   1.801 -0.0328 -0.3586 -0.4672
  194PC     H2A 8641   3.744   0.278   1.727 -1.8834  0.6106 -2.1679
  194PC     H2B 8642   3.674   0.444   1.757  0.9033  0.0800 -0.5679
  194PC     N31 8643   3.852   0.402   1.860  0.0618  0.2736  0.0113
  194PC     C33 8644   3.833   0.505   1.960  0.0531  0.2099 -0.5684
  194PC     H3A 8645   3.930   0.548   1.985  1.0511 -2.4074  0.3440
  194PC     H3B 8646   3.752   0.571   1.927  0.6002  0.1975 -1.9603
  194PC     H3C 8647   3.812   0.452   2.053  0.0920  0.6746 -0.2901
  194PC     C34 8648   3.931   0.285   1.911  0.5967  0.3825  0.8174
  194PC     H4A 8649   3.896   0.253   2.010  0.8605 -2.0333  0.1963
  194PC     H4B 8650   3.931   0.203   1.839  1.7053  0.3033  0.8942
  194PC     H4C 8651   4.033   0.322   1.923  0.0011  2.5727 -0.3663
  194PC     C35 8652   3.931   0.459   1.747 -0.3994  0.0977 -0.5891
  194PC     H5A 8653   3.940   0.379   1.673  1.3445 -0.2309 -0.0897
  194PC     H5B 8654   4.029   0.480   1.791 -0.0961 -0.8217 -0.8020
  194PC     H5C 8655   3.890   0.554   1.712  0.0677  1.1445  1.5355
  194PC     O33 8656   3.357   0.249   2.031  0.1391  1.2218 -0.5070
  194PC     O34 8657   3.394   0.460   2.156 -0.3529 -0.5268 -0.3063
  194PC     O21 8658   3.607   0.411   2.535  0.7162  0.3850 -0.5057
  194PC     C21 8659   3.568   0.530   2.583  0.4340 -1.1967 -0.0846
  194PC     O22 8660   3.469   0.595   2.548 -0.2342  0.4029  0.0693
  195OL     C12 8661   3.665   0.573   2.689 -0.6694 -0.2991 -0.2015
  195OL     H2R 8662   3.680   0.680   2.679  1.0913 -0.5127  0.1117
  195OL     H2S 8663   3.761   0.527   2.666 -1.1941 -0.7633 -1.6213
  195OL     C13 8664   3.614   0.544   2.827  0.2254  0.0890  0.8633
  195OL     H3R 8665   3.566   0.447   2.829 -0.9504  0.6160 -0.1857
  195OL     H3S 8666   3.544   0.622   2.857  1.3057  1.6508 -0.4575
  195OL     C14 8667   3.725   0.547   2.933  0.7440 -0.6620  0.5462
  195OL     H4R 8668   3.770   0.646   2.929 -0.9519  0.1143 -2.8256
  195OL     H4S 8669   3.794   0.470   2.898 -0.2781 -1.1618 -0.4356
  195OL     C15 8670   3.662   0.504   3.072 -0.4795 -0.6111  0.7543
  195OL     H5R 8671   3.635   0.398   3.077  1.0023 -1.0249  0.6044
  195OL     H5S 8672   3.568   0.558   3.077  0.5759  1.5894 -1.2636
  195OL     C16 8673   3.741   0.550   3.193 -0.0702  0.7019  0.3902
  195OL     H6R 8674   3.745   0.659   3.193  0.3975  0.6886  0.1968
  195OL     H6S 8675   3.842   0.512   3.179  0.1782  1.7887 -1.0443
  195OL     C17 8676   3.670   0.492   3.318 -0.2261 -0.3262  0.2229
  195OL     H7R 8677   3.591   0.422   3.293  0.0877 -0.8705  0.7040
  195OL     H7S 8678   3.627   0.574   3.376 -0.1868 -0.9634  1.1615
  195OL     C18 8679   3.771   0.414   3.403  0.1611  0.3561  0.1770
  195OL     H8R 8680   3.855   0.477   3.435  1.7561 -1.6013 -0.0103
  195OL     H8S 8681   3.812   0.326   3.354  0.9499  1.7369 -1.7782
  195OL     C19 8682   3.708   0.370   3.529  0.3608 -0.2477  0.2533
  195OL     H9R 8683   3.612   0.320   3.517 -0.0143  0.3891  0.5903
  195OL    C110 8684   3.765   0.374   3.648  0.9395  0.3817 -0.8727
  195OL    H10R 8685   3.713   0.323   3.728  1.0079 -0.1110 -1.1365
  195OL    C111 8686   3.895   0.441   3.683  0.6553 -0.2486  0.8527
  195OL    H11R 8687   3.885   0.514   3.764  0.0078  0.1492  0.4273
  195OL    H11S 8688   3.941   0.493   3.599  0.2223 -1.0912  0.0842
  195OL    C112 8689   3.994   0.324   3.716  0.0667  0.0195  0.1624
  195OL    H12R 8690   3.996   0.256   3.630  0.2926  0.8192 -0.4760
  195OL    H12S 8691   3.955   0.260   3.796 -3.2350  1.2784 -0.2824
  195OL    C113 8692   4.131   0.381   3.744 -0.4615  0.0233 -0.2222
  195OL    H13R 8693   4.117   0.474   3.801 -1.9293  0.3225 -1.0291
  195OL    H13S 8694   4.179   0.404   3.648 -0.6525 -0.5604 -0.4637
  195OL    C114 8695   4.219   0.283   3.834  0.3189  0.5502  0.2882
  195OL    H14R 8696   4.247   0.195   3.776 -2.2136 -0.9163  1.1385
  195OL    H14S 8697   4.168   0.242   3.922  3.7223 -0.0688  2.1769
  195OL    C115 8698   4.345   0.351   3.890 -0.3167  0.6513  0.1381
  195OL    H15R 8699   4.314   0.451   3.921 -0.7971  0.4085  0.4506
  195OL    H15S 8700   4.410   0.353   3.803 -0.6363 -0.4451 -0.1383
  195OL    C116 8701   4.399   0.266   4.006 -0.5650  0.3127  0.0297
  195OL    H16R 8702   4.463   0.188   3.964 -0.0626  0.2462  0.8889
  195OL    H16S 8703   4.323   0.216   4.066  0.6970 -0.5122  1.0171
  195OL    C117 8704   4.501   0.344   4.098 -0.7512  0.1824 -0.1469
  195OL    H17R 8705   4.576   0.395   4.038 -0.4416 -1.6893 -1.4522
  195OL    H17S 8706   4.551   0.268   4.157 -2.3923 -2.3592 -1.8081
  195OL    C118 8707   4.443   0.442   4.195  0.1427 -0.4693 -0.3135
  195OL    H18R 8708   4.365   0.388   4.249  0.5367 -1.3063 -0.5700
  195OL    H18S 8709   4.403   0.528   4.140  2.6364  0.3874 -0.9565
  195OL    H18T 8710   4.511   0.479   4.272 -1.8799 -1.5498  2.1191
  196PA    C116 8711   2.656   1.621   3.360  0.4259  0.4140 -0.6707
  196PA    H16R 8712   2.569   1.677   3.325  0.2895  1.4691  1.2101
  196PA    H16S 8713   2.667   1.644   3.466 -0.5852 -1.7180 -0.0470
  196PA    H16T 8714   2.649   1.513   3.340  3.4440 -0.0300  0.1619
  196PA    C115 8715   2.785   1.668   3.299 -0.4913  0.2179  0.1038
  196PA    H15R 8716   2.803   1.776   3.302  2.6393 -0.2247  0.7724
  196PA    H15S 8717   2.866   1.626   3.360 -0.7388 -1.6393 -0.7582
  196PA    C114 8718   2.814   1.621   3.155  0.7907  0.5784  0.4293
  196PA    H14R 8719   2.734   1.649   3.085  1.8296 -0.5122 -1.2552
  196PA    H14S 8720   2.898   1.673   3.110 -0.8797  0.7548 -2.8536
  196PA    C113 8721   2.829   1.468   3.145  0.1451  0.1108  0.5453
  196PA    H13R 8722   2.902   1.432   3.217  1.5604  1.5002 -0.1431
  196PA    H13S 8723   2.734   1.417   3.165  0.9327 -1.0937  1.3250
  196PA    C112 8724   2.886   1.424   3.006 -0.2141  0.0734 -0.3694
  196PA    H12R 8725   2.979   1.476   2.981 -0.9988  1.4436 -0.5513
  196PA    H12S 8726   2.910   1.320   3.025 -0.4873  0.2674  1.2032
  196PA    C111 8727   2.789   1.438   2.882  0.0150 -0.2045 -0.8563
  196PA    H11R 8728   2.773   1.544   2.862  0.4680 -0.3125 -1.8740
  196PA    H11S 8729   2.836   1.392   2.795 -2.2513 -0.5723 -1.9405
  196PA    C110 8730   2.656   1.362   2.897  0.9230  0.8412 -0.5885
  196PA    H10R 8731   2.682   1.267   2.944  1.1233  0.8618 -0.6557
  196PA    H10S 8732   2.583   1.410   2.963  0.1827 -1.2104  0.1847
  196PA     C19 8733   2.568   1.329   2.777 -0.8912 -0.2056 -0.4561
  196PA     H9R 8734   2.487   1.266   2.816 -0.3369  0.3130  1.6227
  196PA     H9S 8735   2.521   1.424   2.754  0.0593  0.2594 -0.5341
  196PA     C18 8736   2.644   1.272   2.653 -0.7843  0.1493 -0.9917
  196PA     H8R 8737   2.719   1.340   2.613  0.2660 -0.6331 -0.4035
  196PA     H8S 8738   2.702   1.184   2.683 -0.2838  1.1128  1.0435
  196PA     C17 8739   2.550   1.224   2.545 -1.0800  0.0465  0.6778
  196PA     H7R 8740   2.498   1.311   2.505 -0.0644 -0.2688 -1.4903
  196PA     H7S 8741   2.610   1.184   2.462  0.5996 -1.9620  2.7369
  196PA     C16 8742   2.448   1.115   2.593 -0.4934 -0.1054  0.3543
  196PA     H6R 8743   2.490   1.066   2.681 -1.7332 -0.4422  0.7703
  196PA     H6S 8744   2.358   1.161   2.633  0.2107  1.1596  0.5317
  196PA     C15 8745   2.421   1.019   2.482  0.5543  0.2094  0.7273
  196PA     H5R 8746   2.334   0.957   2.503 -0.8615  1.5611 -0.8193
  196PA     H5S 8747   2.390   1.080   2.396  1.4029  2.9656  2.2628
  196PA     C14 8748   2.540   0.925   2.443  0.2905  0.0356  0.2111
  196PA     H4R 8749   2.635   0.976   2.425  0.3999  0.1139  0.9714
  196PA     H4S 8750   2.551   0.853   2.524 -1.9211  0.7228  1.2136
  196PA     C13 8751   2.500   0.854   2.310  0.0411  0.1585  0.4715
  196PA     H3R 8752   2.467   0.921   2.230 -1.3248 -0.6806  0.3079
  196PA     H3S 8753   2.585   0.805   2.262 -1.1858 -0.3856 -1.2433
  196PA     C12 8754   2.404   0.736   2.339  0.2524 -0.1848 -0.4241
  196PA     H2R 8755   2.461   0.674   2.408  0.5365 -0.3877 -0.8379
  196PA     H2S 8756   2.312   0.776   2.381  0.9093 -0.0234  0.9195
  197PC     C11 8757   2.370   0.660   2.214 -0.0693 -0.0469  0.9160
  197PC     O12 8758   2.307   0.711   2.117 -0.7114  0.0492 -0.0988
  197PC     O11 8759   2.409   0.528   2.217  0.0499 -0.2647  0.3952
  197PC      C1 8760   2.404   0.467   2.089  0.0015  0.3669 -0.1400
  197PC      HR 8761   2.304   0.437   2.057 -0.7203 -0.0038  2.2396
  197PC      HS 8762   2.451   0.529   2.012 -1.5139  0.8413 -0.7279
  197PC      C2 8763   2.484   0.341   2.122  0.0735  0.1924  0.1156
  197PC      HX 8764   2.549   0.359   2.208  0.5531 -0.1317 -0.1773
  197PC      C3 8765   2.569   0.273   2.009 -0.5285  0.6940  0.2963
  197PC      HA 8766   2.652   0.336   1.974 -0.1537 -0.6150 -1.3103
  197PC      HB 8767   2.613   0.181   2.049 -0.2559  0.3739 -0.6978
  197PC     O31 8768   2.488   0.228   1.894  0.2783 -0.0718 -0.3296
  197PC     P31 8769   2.457   0.325   1.777 -0.2558  0.6563  0.0504
  197PC     O32 8770   2.311   0.380   1.801  0.4774  0.2207 -0.4213
  197PC     C31 8771   2.193   0.301   1.794 -0.7035 -0.2405  0.2821
  197PC     H1A 8772   2.200   0.197   1.826 -0.1224  0.1935  1.6564
  197PC     H1B 8773   2.119   0.348   1.860 -0.7086  0.1347  0.0149
  197PC     C32 8774   2.133   0.309   1.645 -0.4619  0.1704 -1.0476
  197PC     H2A 8775   2.105   0.411   1.619  0.5166  0.6552 -0.2644
  197PC     H2B 8776   2.213   0.289   1.574  1.7887 -0.5673  1.5204
  197PC     N31 8777   2.017   0.224   1.623 -0.1931  0.0791  0.4251
  197PC     C33 8778   2.056   0.082   1.642 -0.2598 -0.5055  0.1272
  197PC     H3A 8779   1.974   0.015   1.616  0.8200 -1.5856 -0.5772
  197PC     H3B 8780   2.144   0.068   1.580  0.3030 -0.6507  0.9433
  197PC     H3C 8781   2.088   0.061   1.744  1.3477 -0.4577 -0.3457
  197PC     C34 8782   1.900   0.261   1.708 -0.3074  0.3051  0.0595
  197PC     H4A 8783   1.919   0.240   1.814  0.0894  0.0638 -0.0548
  197PC     H4B 8784   1.883   0.367   1.690  0.1833  0.5876  1.1710
  197PC     H4C 8785   1.819   0.194   1.680  1.1506 -1.7474  0.4722
  197PC     C35 8786   1.968   0.239   1.486 -0.2226 -0.6827 -0.6106
  197PC     H5A 8787   2.056   0.219   1.425  1.0141 -0.2089  0.9359
  197PC     H5B 8788   1.939   0.344   1.478  0.2367 -0.6432 -2.0029
  197PC     H5C 8789   1.883   0.172   1.475  1.1694 -2.5644 -0.3676
  197PC     O33 8790   2.543   0.442   1.786 -0.1403 -0.1434  0.0536
  197PC     O34 8791   2.473   0.253   1.649 -0.2870  0.1753  0.1547
  197PC     O21 8792   2.392   0.233   2.171 -0.3529  0.1566  0.2785
  197PC     C21 8793   2.433   0.157   2.276  0.3830  0.4828 -0.0802
  197PC     O22 8794   2.553   0.154   2.312 -0.2418  0.0330 -0.2849
  198OL     C12 8795   2.320   0.087   2.343 -0.0113 -0.0535  0.1186
  198OL     H2R 8796   2.354  -0.015   2.323 -4.2931 -1.3322 -1.9834
  198OL     H2S 8797   2.226   0.100   2.288  1.2971  0.6256 -2.0684
  198OL     C13 8798   2.319   0.119   2.489  0.2684 -0.6237  0.6248
  198OL     H3R 8799   2.328   0.225   2.515 -0.8988 -0.7724  1.7218
  198OL     H3S 8800   2.408   0.075   2.534  0.1799 -0.4152  1.0166
  198OL     C14 8801   2.200   0.062   2.564  1.1580 -0.6607  0.2077
  198OL     H4R 8802   2.196  -0.046   2.548 -3.4427 -0.5658 -0.6061
  198OL     H4S 8803   2.098   0.089   2.538  0.1264 -2.9243  1.6588
  198OL     C15 8804   2.205   0.082   2.716 -0.3958  0.2538  0.4357
  198OL     H5R 8805   2.230   0.185   2.743 -0.1706  0.5574 -0.8322
  198OL     H5S 8806   2.283   0.015   2.752  0.7205  0.3659 -1.6363
  198OL     C16 8807   2.063   0.046   2.775 -0.1410  0.7758 -0.3655
  198OL     H6R 8808   2.030  -0.049   2.732 -3.0595  1.2320  0.5801
  198OL     H6S 8809   1.999   0.129   2.745  1.2954  2.0730  0.0478
  198OL     C17 8810   2.073   0.030   2.929 -0.2430  0.3028 -0.5122
  198OL     H7R 8811   2.105   0.126   2.969 -1.3586  0.9722 -1.1897
  198OL     H7S 8812   2.132  -0.056   2.961 -1.2800 -0.8408 -1.5638
  198OL     C18 8813   1.936  -0.004   2.998 -0.1925 -0.1268  0.2666
  198OL     H8R 8814   1.911  -0.106   2.967 -1.8007  0.3963 -0.2480
  198OL     H8S 8815   1.859   0.067   2.966  1.4597  0.3444 -3.0347
  198OL     C19 8816   1.943  -0.011   3.148 -0.8044  0.0426 -0.1860
  198OL     H9R 8817   2.031  -0.062   3.186 -1.9864 -1.5053  0.5797
  198OL    C110 8818   1.852   0.037   3.231  0.6970  0.3083  0.4028
  198OL    H10R 8819   1.888   0.043   3.333 -1.2315 -0.6556  1.2015
  198OL    C111 8820   1.726   0.119   3.197  0.0590  0.3589 -0.0439
  198OL    H11R 8821   1.688   0.105   3.096 -1.0058 -0.0976  0.4014
  198OL    H11S 8822   1.764   0.221   3.199  1.3736 -0.1016 -0.1535
  198OL    C112 8823   1.611   0.096   3.294 -0.3023 -0.4375  0.1862
  198OL    H12R 8824   1.580  -0.009   3.296 -0.8422 -0.3119 -0.9739
  198OL    H12S 8825   1.539   0.160   3.244  1.6547  1.0814 -0.8457
  198OL    C113 8826   1.631   0.134   3.441 -0.1332 -0.7476 -0.0638
  198OL    H13R 8827   1.665   0.238   3.441 -0.6083 -0.5754  1.4922
  198OL    H13S 8828   1.712   0.075   3.483  1.2354  0.6435 -0.6325
  198OL    C114 8829   1.503   0.115   3.517 -0.4789 -0.0362 -0.0818
  198OL    H14R 8830   1.490   0.007   3.516  0.4571 -0.1546 -0.0937
  198OL    H14S 8831   1.423   0.155   3.454 -1.3110 -2.2950 -0.5728
  198OL    C115 8832   1.490   0.177   3.659  0.3092 -0.1451 -0.2976
  198OL    H15R 8833   1.461   0.282   3.650  0.5193  0.1695  2.0364
  198OL    H15S 8834   1.593   0.188   3.694  0.1264 -1.3750  0.6672
  198OL    C116 8835   1.408   0.102   3.761 -0.0921  0.4357  0.5955
  198OL    H16R 8836   1.426   0.144   3.860 -0.7855  0.6029  0.6548
  198OL    H16S 8837   1.449   0.001   3.769 -0.7661 -0.0676 -1.6511
  198OL    C117 8838   1.266   0.102   3.717 -0.5392 -0.3120 -0.1719
  198OL    H17R 8839   1.262   0.061   3.616 -0.0224 -0.7454 -0.0175
  198OL    H17S 8840   1.240   0.208   3.716  2.9827  0.7601  1.9883
  198OL    C118 8841   1.178   0.035   3.816  0.0415 -0.6060  0.5338
  198OL    H18R 8842   1.193   0.083   3.914 -2.5355  2.6966 -0.4923
  198OL    H18S 8843   1.189  -0.073   3.812 -3.4164 -1.0825  0.8213
  198OL    H18T 8844   1.074   0.057   3.792  0.4703  0.5296 -0.3913
  199PA    C116 8845   5.519  -2.832   3.694 -0.5805  0.0679 -0.8040
  199PA    H16R 8846   5.516  -2.941   3.695  0.6429  0.0139  0.7426
  199PA    H16S 8847   5.535  -2.823   3.802 -0.0235 -0.9826 -0.7837
  199PA    H16T 8848   5.606  -2.787   3.647  2.2003 -0.4023  3.3247
  199PA    C115 8849   5.392  -2.771   3.653  0.0123 -0.9024 -0.1584
  199PA    H15R 8850   5.310  -2.821   3.705 -1.4718  0.4507 -1.1031
  199PA    H15S 8851   5.397  -2.671   3.696 -1.7119  0.4160 -2.7423
  199PA    C114 8852   5.363  -2.768   3.498 -0.1570  0.7125 -0.1237
  199PA    H14R 8853   5.255  -2.753   3.495 -0.3563 -0.7847 -1.4144
  199PA    H14S 8854   5.419  -2.686   3.452  1.3611 -0.3043 -0.1862
  199PA    C113 8855   5.399  -2.898   3.430  0.3827  0.4090 -0.3374
  199PA    H13R 8856   5.507  -2.917   3.438  0.4479  0.9945  0.3075
  199PA    H13S 8857   5.350  -2.981   3.481  1.1882  0.5772  0.7488
  199PA    C112 8858   5.351  -2.899   3.284  0.3470  0.4490 -0.1561
  199PA    H12R 8859   5.369  -2.796   3.252 -0.0776  0.6974  0.3754
  199PA    H12S 8860   5.412  -2.963   3.221 -0.6873 -0.6742 -0.0653
  199PA    C111 8861   5.202  -2.931   3.272  0.2609 -0.3461  0.9228
  199PA    H11R 8862   5.181  -3.029   3.315 -2.7715  1.0156  2.8331
  199PA    H11S 8863   5.151  -2.858   3.336  0.7593  0.0788  0.8407
  199PA    C110 8864   5.143  -2.945   3.128  0.2975 -0.0440  0.2122
  199PA    H10R 8865   5.163  -2.855   3.070  0.1226 -0.5552 -0.6671
  199PA    H10S 8866   5.196  -3.022   3.071 -0.0654  0.8474 -1.3845
  199PA     C19 8867   4.991  -2.977   3.140 -0.4621 -0.1150 -0.2779
  199PA     H9R 8868   4.980  -3.071   3.195 -1.0661 -0.2478 -0.6218
  199PA     H9S 8869   4.951  -2.896   3.200 -3.0726  0.2694 -2.3630
  199PA     C18 8870   4.927  -2.988   3.002  0.0048  0.3239  0.1326
  199PA     H8R 8871   4.934  -2.892   2.951 -2.6215  1.6433  2.0293
  199PA     H8S 8872   4.981  -3.067   2.950  2.0272  0.8852  1.2555
  199PA     C17 8873   4.778  -3.011   3.003  0.3635  0.1596  0.0413
  199PA     H7R 8874   4.763  -3.098   3.067  1.4148  1.4094  2.0696
  199PA     H7S 8875   4.721  -2.933   3.054  0.0315 -0.0327 -0.0327
  199PA     C16 8876   4.731  -3.032   2.864 -0.0615  0.3040  0.1159
  199PA     H6R 8877   4.789  -3.106   2.808  2.2780  0.2765  2.3778
  199PA     H6S 8878   4.631  -3.075   2.867 -0.0728  0.3014 -0.2398
  199PA     C15 8879   4.723  -2.902   2.782  0.1627 -0.7450 -0.5213
  199PA     H5R 8880   4.810  -2.838   2.797 -1.0702  0.6869  1.0440
  199PA     H5S 8881   4.723  -2.927   2.676 -0.8482  2.9107 -1.5348
  199PA     C14 8882   4.600  -2.807   2.808  0.1849  0.6948 -0.6630
  199PA     H4R 8883   4.581  -2.813   2.916  2.7702 -1.2420 -0.2049
  199PA     H4S 8884   4.627  -2.707   2.775 -0.5078  1.1872  0.2268
  199PA     C13 8885   4.481  -2.847   2.727  0.4665  0.0865 -0.6268
  199PA     H3R 8886   4.445  -2.945   2.762 -0.7161  0.8073  0.2652
  199PA     H3S 8887   4.391  -2.787   2.744  0.3129 -0.2090 -0.3735
  199PA     C12 8888   4.502  -2.855   2.571  0.3425  0.3791 -0.7201
  199PA     H2R 8889   4.554  -2.764   2.542  1.5789 -0.2744 -0.6250
  199PA     H2S 8890   4.568  -2.938   2.546  2.1710  1.7218 -0.5567
  200PC     C11 8891   4.369  -2.861   2.501 -0.4209  0.2313  0.3133
  200PC     O12 8892   4.287  -2.949   2.525 -0.2018 -0.4211  0.1291
  200PC     O11 8893   4.356  -2.763   2.413 -0.7302 -0.4133 -0.3885
  200PC      C1 8894   4.240  -2.764   2.324 -0.1947  0.0467 -0.4903
  200PC      HR 8895   4.257  -2.825   2.235 -1.8769 -0.2300 -0.6617
  200PC      HS 8896   4.147  -2.778   2.380  0.6101 -0.4104  0.7620
  200PC      C2 8897   4.230  -2.618   2.269 -0.3601  0.0697 -0.2763
  200PC      HX 8898   4.139  -2.611   2.208 -1.4316  2.5496  1.4892
  200PC      C3 8899   4.340  -2.573   2.176 -0.6851 -0.0377  0.6276
  200PC      HA 8900   4.332  -2.466   2.152  3.5737  0.3382  0.0096
  200PC      HB 8901   4.434  -2.590   2.229 -1.2375 -2.2854  0.9889
  200PC     O31 8902   4.348  -2.649   2.044 -0.0480  0.3247  0.1644
  200PC     P31 8903   4.295  -2.581   1.916 -0.4509  0.2190  0.2384
  200PC     O32 8904   4.411  -2.471   1.876 -0.1727 -0.2725  0.5809
  200PC     C31 8905   4.543  -2.520   1.826  0.7971 -0.0767  0.0778
  200PC     H1A 8906   4.596  -2.541   1.919  1.8131 -0.3525 -0.5404
  200PC     H1B 8907   4.531  -2.610   1.765  0.0859 -0.3806  0.6599
  200PC     C32 8908   4.606  -2.403   1.744  0.0599  0.6417  0.0672
  200PC     H2A 8909   4.619  -2.316   1.808  0.0817  0.5861  0.1388
  200PC     H2B 8910   4.703  -2.439   1.709  0.4393  0.8783  0.8554
  200PC     N31 8911   4.544  -2.351   1.623 -0.8572  0.4814 -0.0379
  200PC     C33 8912   4.420  -2.275   1.666 -0.1954  0.6144 -0.0940
  200PC     H3A 8913   4.357  -2.362   1.687  3.2121 -2.6635 -2.0801
  200PC     H3B 8914   4.434  -2.212   1.753  2.3950 -0.3700  0.2977
  200PC     H3C 8915   4.385  -2.222   1.577 -1.7258 -0.2114 -0.0235
  200PC     C34 8916   4.644  -2.249   1.563 -0.0450 -0.3983  1.2726
  200PC     H4A 8917   4.742  -2.293   1.545  0.3439  1.4142 -1.6070
  200PC     H4B 8918   4.595  -2.221   1.470  0.7594 -1.9445  0.3357
  200PC     H4C 8919   4.648  -2.166   1.635 -2.7171  1.3029 -0.3927
  200PC     C35 8920   4.511  -2.455   1.524 -0.0802 -0.6466  0.2508
  200PC     H5A 8921   4.434  -2.529   1.544 -0.1665 -0.8142 -0.6252
  200PC     H5B 8922   4.603  -2.509   1.504  0.1849 -0.0691 -0.1012
  200PC     H5C 8923   4.474  -2.408   1.432  3.3783 -0.0028 -0.9667
  200PC     O33 8924   4.293  -2.674   1.800 -0.0498 -0.0848 -0.7810
  200PC     O34 8925   4.169  -2.505   1.934  0.1250  0.2220  0.1801
  200PC     O21 8926   4.220  -2.520   2.374 -0.3337 -0.0113  0.2055
  200PC     C21 8927   4.098  -2.490   2.413 -0.5883  0.0141  0.3635
  200PC     O22 8928   3.997  -2.541   2.373 -0.0497 -0.7468 -0.1784
  201OL     C12 8929   4.092  -2.384   2.516  0.2507 -0.0195 -0.1086
  201OL     H2R 8930   3.992  -2.341   2.512  0.9994  1.7576 -1.1101
  201OL     H2S 8931   4.161  -2.306   2.484 -1.0081  1.3073  0.3195
  201OL     C13 8932   4.130  -2.442   2.657  0.3683  0.6076  0.7407
  201OL     H3R 8933   4.232  -2.478   2.651  0.1894  0.2887 -1.1423
  201OL     H3S 8934   4.064  -2.529   2.660  1.7305 -0.5379 -0.6769
  201OL     C14 8935   4.125  -2.333   2.761 -0.4783 -0.0918 -0.7925
  201OL     H4R 8936   4.023  -2.295   2.752 -0.4667  0.2531  0.4532
  201OL     H4S 8937   4.196  -2.255   2.735 -1.6374  1.2499 -0.0221
  201OL     C15 8938   4.152  -2.388   2.906  0.1284 -0.4933  0.0782
  201OL     H5R 8939   4.241  -2.452   2.909  0.2227 -0.3494  0.4510
  201OL     H5S 8940   4.065  -2.451   2.923  0.2145 -1.3554 -2.3773
  201OL     C16 8941   4.155  -2.279   3.009 -0.5224 -0.0236  0.7662
  201OL     H6R 8942   4.079  -2.203   2.989 -0.1614 -0.0288 -0.7714
  201OL     H6S 8943   4.259  -2.247   3.002 -0.2276 -0.8085  1.3690
  201OL     C17 8944   4.151  -2.354   3.147  0.0165 -0.1892 -0.2153
  201OL     H7R 8945   4.220  -2.438   3.148 -0.4474 -0.6425 -1.8729
  201OL     H7S 8946   4.049  -2.390   3.164 -0.4277  0.1517 -1.9525
  201OL     C18 8947   4.194  -2.264   3.261  0.5150  0.2372 -0.2379
  201OL     H8R 8948   4.126  -2.178   3.254  0.5969  0.4731  1.4779
  201OL     H8S 8949   4.298  -2.231   3.249  0.2410  1.4045  0.3983
  201OL     C19 8950   4.166  -2.331   3.392  0.6022 -0.2842 -0.3899
  201OL     H9R 8951   4.190  -2.437   3.391 -2.1069 -1.0079  1.3808
  201OL    C110 8952   4.124  -2.281   3.506 -0.5789 -0.8641  0.1925
  201OL    H10R 8953   4.106  -2.344   3.592 -2.8751  0.5874  0.8821
  201OL    C111 8954   4.081  -2.132   3.530 -0.1804  0.7711 -0.0577
  201OL    H11R 8955   4.037  -2.079   3.445 -0.8595  0.2881 -0.0133
  201OL    H11S 8956   4.168  -2.070   3.553  0.4580  0.2996 -1.1462
  201OL    C112 8957   3.979  -2.130   3.655 -0.5313 -0.0403 -0.1083
  201OL    H12R 8958   4.024  -2.175   3.744 -0.7710 -0.1414 -0.0342
  201OL    H12S 8959   3.903  -2.200   3.622  1.3524 -2.1696 -0.1429
  201OL    C113 8960   3.917  -1.992   3.686 -0.0633 -0.1181 -0.1489
  201OL    H13R 8961   3.844  -1.969   3.608  0.5935 -1.0412 -1.0592
  201OL    H13S 8962   3.992  -1.914   3.675 -0.7094  0.6611  0.7768
  201OL    C114 8963   3.852  -2.002   3.822  0.6003 -0.3040 -0.5248
  201OL    H14R 8964   3.935  -2.017   3.892  0.2491  2.7989  0.7566
  201OL    H14S 8965   3.788  -2.090   3.821  1.4694 -0.9477 -0.6773
  201OL    C115 8966   3.767  -1.882   3.861  0.2501 -1.3698  0.0270
  201OL    H15R 8967   3.702  -1.897   3.947  0.0299  0.4500  0.2263
  201OL    H15S 8968   3.696  -1.862   3.781 -0.8509 -0.1725  1.2584
  201OL    C116 8969   3.858  -1.758   3.885  0.4806  1.0974 -0.9320
  201OL    H16R 8970   3.943  -1.748   3.817  2.7711 -0.2995  1.4910
  201OL    H16S 8971   3.902  -1.771   3.985 -0.5312 -1.8686 -0.7843
  201OL    C117 8972   3.773  -1.629   3.901  0.7982 -0.2156  0.3293
  201OL    H17R 8973   3.844  -1.554   3.936  0.8905 -0.0401 -0.2291
  201OL    H17S 8974   3.702  -1.621   3.983  0.4180 -0.1071 -0.0073
  201OL    C118 8975   3.714  -1.575   3.767 -0.0945  0.0656  0.3869
  201OL    H18R 8976   3.670  -1.477   3.788 -2.8397 -0.8502 -0.6253
  201OL    H18S 8977   3.639  -1.647   3.733 -0.6750  0.8095  0.0501
  201OL    H18T 8978   3.788  -1.562   3.688 -0.2356  0.7164  0.3514
  202PA    C116 8979   4.511   3.635   3.161  0.1080  0.5339 -0.7287
  202PA    H16R 8980   4.608   3.593   3.135  0.2957  1.7427 -2.1109
  202PA    H16S 8981   4.437   3.601   3.088  1.4258 -1.1699 -1.3293
  202PA    H16T 8982   4.482   3.595   3.259  1.3279  2.2904  0.4165
  202PA    C115 8983   4.528   3.789   3.169  1.1193 -0.0171  0.2303
  202PA    H15R 8984   4.456   3.837   3.236  1.8982  2.3505 -0.5588
  202PA    H15S 8985   4.622   3.816   3.216  1.0544  2.9558 -1.1513
  202PA    C114 8986   4.534   3.851   3.031 -0.6476  0.0512  0.1067
  202PA    H14R 8987   4.617   3.806   2.975 -0.3720  0.7713 -0.0783
  202PA    H14S 8988   4.438   3.843   2.980 -0.3265  0.2983 -0.5583
  202PA    C113 8989   4.574   3.999   3.035 -0.4425  0.3147  0.1561
  202PA    H13R 8990   4.523   4.060   3.110  1.5833  0.7530  1.2685
  202PA    H13S 8991   4.677   3.988   3.070 -0.8441  0.1246  1.3200
  202PA    C112 8992   4.580   4.071   2.901 -0.4495  0.2018 -0.1226
  202PA    H12R 8993   4.623   4.009   2.822 -1.4047  1.3571 -1.6209
  202PA    H12S 8994   4.479   4.091   2.865 -0.5951 -1.4580 -0.7360
  202PA    C111 8995   4.649   4.206   2.909  0.1539 -0.9801  0.2000
  202PA    H11R 8996   4.584   4.267   2.971  1.3855  2.2531 -1.4330
  202PA    H11S 8997   4.742   4.201   2.967 -0.6214  1.4864  1.8243
  202PA    C110 8998   4.676   4.282   2.776 -0.2826  0.1663  0.3808
  202PA    H10R 8999   4.755   4.228   2.723 -1.3239 -0.9670 -0.0513
  202PA    H10S 9000   4.587   4.280   2.714  2.2087  2.0550 -3.6634
  202PA     C19 9001   4.726   4.425   2.789 -0.7765 -0.0608  0.1189
  202PA     H9R 9002   4.650   4.486   2.837 -0.4099 -0.4929  1.2967
  202PA     H9S 9003   4.817   4.427   2.849 -0.2783 -0.1114 -0.6170
  202PA     C18 9004   4.766   4.483   2.649  0.0507  0.3018  0.5907
  202PA     H8R 9005   4.818   4.577   2.672 -1.5418  1.3461  0.0448
  202PA     H8S 9006   4.837   4.418   2.598  2.9378  1.4857  2.7954
  202PA     C17 9007   4.643   4.506   2.559 -0.2790 -0.4806 -0.0213
  202PA     H7R 9008   4.586   4.412   2.555  2.1689 -2.0269 -0.6460
  202PA     H7S 9009   4.582   4.575   2.618  0.8034  0.1643  0.3818
  202PA     C16 9010   4.663   4.549   2.411 -0.6431 -0.5719  0.5288
  202PA     H6R 9011   4.568   4.548   2.357 -0.5453  0.7574  0.2780
  202PA     H6S 9012   4.699   4.652   2.403 -0.0875 -0.7859  0.1933
  202PA     C15 9013   4.763   4.448   2.355 -0.1956 -0.4012  0.3271
  202PA     H5R 9014   4.771   4.465   2.247  2.0735 -2.4576  0.1049
  202PA     H5S 9015   4.856   4.476   2.404  0.4103 -1.1802 -0.3477
  202PA     C14 9016   4.729   4.298   2.375  0.2458  0.3684 -0.4135
  202PA     H4R 9017   4.760   4.259   2.472 -1.8851  0.9454  0.5447
  202PA     H4S 9018   4.621   4.281   2.366 -0.0685  0.0578  2.7749
  202PA     C13 9019   4.793   4.211   2.266  0.0148  0.5711 -0.0851
  202PA     H3R 9020   4.762   4.108   2.283 -0.8899  0.7116 -0.8259
  202PA     H3S 9021   4.751   4.240   2.170 -1.1827 -0.2476  0.1709
  202PA     C12 9022   4.947   4.208   2.253  0.1825 -0.4280  0.0527
  202PA     H2R 9023   4.971   4.311   2.228 -0.0525 -1.0319 -3.1864
  202PA     H2S 9024   4.986   4.173   2.349 -1.7103  1.3000  1.5565
  203PC     C11 9025   4.998   4.126   2.138  0.3949  0.2197 -0.5299
  203PC     O12 9026   5.018   4.170   2.026  0.0706 -0.3845  0.1875
  203PC     O11 9027   5.022   4.002   2.177  0.5612 -0.5414  0.2943
  203PC      C1 9028   5.061   3.903   2.077 -0.4173  0.4862 -0.1586
  203PC      HR 9029   5.015   3.923   1.980 -0.6117 -0.9625 -0.3843
  203PC      HS 9030   5.169   3.921   2.070 -0.0843 -0.8256  1.1254
  203PC      C2 9031   5.053   3.758   2.129  0.1669  0.0380  0.6934
  203PC      HX 9032   5.125   3.698   2.074  0.4120  0.7117  0.2668
  203PC      C3 9033   4.920   3.694   2.090  0.2844  0.4606 -0.1668
  203PC      HA 9034   4.904   3.597   2.137 -1.1740  1.2262  1.0222
  203PC      HB 9035   4.840   3.756   2.132 -1.1614  0.6011 -2.8799
  203PC     O31 9036   4.909   3.687   1.947  0.7889 -0.2460  0.5604
  203PC     P31 9037   4.947   3.552   1.869 -0.1291  0.3786 -0.0376
  203PC     O32 9038   4.810   3.479   1.848  0.6926  1.1258  0.3601
  203PC     C31 9039   4.749   3.409   1.958  0.7515  0.4144  0.0053
  203PC     H1A 9040   4.804   3.318   1.985 -2.8578 -2.2488 -0.8918
  203PC     H1B 9041   4.752   3.478   2.043  1.4137 -0.5032  0.7597
  203PC     C32 9042   4.612   3.365   1.917  0.1074  0.0973  0.2587
  203PC     H2A 9043   4.556   3.456   1.893  1.8355  1.0043 -0.5485
  203PC     H2B 9044   4.624   3.299   1.831  0.6904  0.2023  0.2547
  203PC     N31 9045   4.535   3.278   2.009  0.4154 -0.5195 -0.1014
  203PC     C33 9046   4.523   3.342   2.144  0.2442 -0.4270  0.6102
  203PC     H3A 9047   4.439   3.297   2.197 -0.2943  0.1339  0.2413
  203PC     H3B 9048   4.614   3.337   2.204 -0.5994 -0.3122  1.9641
  203PC     H3C 9049   4.505   3.449   2.126  1.0121 -0.1133  1.6007
  203PC     C34 9050   4.399   3.259   1.962  0.5883 -0.6594 -0.5405
  203PC     H4A 9051   4.395   3.212   1.864 -3.6753 -2.5905  0.3285
  203PC     H4B 9052   4.350   3.192   2.033  1.2755 -0.1082  0.4803
  203PC     H4C 9053   4.353   3.358   1.962  2.8270  0.4613  0.4876
  203PC     C35 9054   4.600   3.145   2.021 -0.2609 -0.4224 -0.0730
  203PC     H5A 9055   4.525   3.093   2.081 -0.3906  0.0224  0.1554
  203PC     H5B 9056   4.690   3.144   2.084 -1.0552  0.7328  1.1571
  203PC     H5C 9057   4.615   3.104   1.921 -2.2225  0.8266 -0.9334
  203PC     O33 9058   4.992   3.591   1.736  0.0152 -0.2110 -0.6006
  203PC     O34 9059   5.036   3.469   1.945  0.3178 -0.5995  0.3641
  203PC     O21 9060   5.063   3.749   2.268 -0.3254 -0.1311 -0.2483
  203PC     C21 9061   5.183   3.765   2.322 -0.5037  0.0793  0.3347
  203PC     O22 9062   5.284   3.798   2.261  0.0157 -0.6139 -0.3675
  204OL     C12 9063   5.175   3.726   2.469 -0.4094  0.0031  0.1801
  204OL     H2R 9064   5.077   3.682   2.491  0.2620 -0.9997  1.2782
  204OL     H2S 9065   5.178   3.815   2.532  0.7262 -0.0520  0.2174
  204OL     C13 9066   5.291   3.631   2.505 -0.0632  0.0212 -1.0611
  204OL     H3R 9067   5.385   3.687   2.506 -0.0427  0.4954  4.5376
  204OL     H3S 9068   5.297   3.548   2.434 -0.6800  1.5524 -2.9602
  204OL     C14 9069   5.271   3.575   2.653  0.3077  0.0538 -0.1963
  204OL     H4R 9070   5.233   3.659   2.712 -1.3568 -1.3755  0.8839
  204OL     H4S 9071   5.362   3.532   2.693  0.8861  0.8535 -0.6272
  204OL     C15 9072   5.160   3.463   2.644 -0.0123 -0.2409 -0.0156
  204OL     H5R 9073   5.064   3.513   2.632  0.6716  1.5079  1.2955
  204OL     H5S 9074   5.158   3.430   2.748 -0.1239 -2.3005 -0.6258
  204OL     C16 9075   5.188   3.335   2.558 -0.9634  0.2812  0.2589
  204OL     H6R 9076   5.293   3.306   2.558 -1.1033 -0.2346  0.7255
  204OL     H6S 9077   5.156   3.354   2.455  0.7903  0.0995 -0.3467
  204OL     C17 9078   5.107   3.214   2.623  0.6509 -0.1731  0.0686
  204OL     H7R 9079   5.001   3.236   2.636  0.1291 -1.9509 -0.9118
  204OL     H7S 9080   5.157   3.193   2.718  0.8794 -3.3549 -0.6532
  204OL     C18 9081   5.110   3.081   2.552 -0.9961  0.2144  0.6229
  204OL     H8R 9082   5.062   3.091   2.454 -1.1998  1.3605  0.8344
  204OL     H8S 9083   5.041   3.009   2.598 -0.2849 -0.4951  0.6041
  204OL     C19 9084   5.254   3.036   2.539 -0.1624 -0.9206  0.2324
  204OL     H9R 9085   5.301   3.079   2.451 -0.5573  0.8422  0.8352
  204OL    C110 9086   5.327   2.964   2.627  0.4559 -0.2509  0.0563
  204OL    H10R 9087   5.434   2.952   2.607 -0.1628 -0.5445 -3.8075
  204OL    C111 9088   5.269   2.895   2.752 -0.2303 -0.3957  0.6319
  204OL    H11R 9089   5.236   2.797   2.716 -1.3900  0.5822 -1.1370
  204OL    H11S 9090   5.186   2.957   2.787 -0.1518  0.7765 -1.1545
  204OL    C112 9091   5.367   2.898   2.872  0.4771 -0.0812 -0.0498
  204OL    H12R 9092   5.328   2.978   2.936 -0.9779 -0.2126 -0.7470
  204OL    H12S 9093   5.469   2.913   2.834 -0.2515 -0.6558 -2.4215
  204OL    C113 9094   5.357   2.776   2.962  0.0599  0.1244  0.0268
  204OL    H13R 9095   5.378   2.689   2.900  2.5845  0.2490  0.6127
  204OL    H13S 9096   5.261   2.764   3.013  0.6789 -0.5815  1.0669
  204OL    C114 9097   5.456   2.786   3.081 -0.7642 -0.1184  0.4513
  204OL    H14R 9098   5.557   2.769   3.043  0.1907  2.8721  1.3684
  204OL    H14S 9099   5.434   2.708   3.154  0.5040  0.5696  1.6160
  204OL    C115 9100   5.452   2.923   3.163 -0.2732  0.0789  0.5709
  204OL    H15R 9101   5.347   2.937   3.191 -0.6375 -2.3754  0.7091
  204OL    H15S 9102   5.481   3.004   3.096 -1.3389  0.1116  0.1335
  204OL    C116 9103   5.546   2.926   3.278 -0.1546  0.1762 -0.0939
  204OL    H16R 9104   5.516   3.009   3.343 -0.5220 -0.6408  0.7909
  204OL    H16S 9105   5.649   2.948   3.249 -0.7997  2.9323 -0.6668
  204OL    C117 9106   5.557   2.800   3.369  0.3138 -0.5688  0.1292
  204OL    H17R 9107   5.580   2.717   3.302  2.0661  1.0736 -1.4595
  204OL    H17S 9108   5.456   2.776   3.401 -0.6671  0.6785 -1.7801
  204OL    C118 9109   5.651   2.832   3.484 -0.5828  0.6206  0.2389
  204OL    H18R 9110   5.594   2.887   3.559 -2.5616 -2.1522  0.9148
  204OL    H18S 9111   5.735   2.891   3.445 -1.8739  0.8781 -2.3357
  204OL    H18T 9112   5.682   2.734   3.521 -1.2784 -0.5103 -1.9779
  205PA    C116 9113   1.951   7.198   3.850  0.0468  0.4613  0.5779
  205PA    H16R 9114   1.890   7.111   3.876 -2.1537  1.7999  0.0724
  205PA    H16S 9115   1.967   7.259   3.940  0.9267  1.4266 -0.2091
  205PA    H16T 9116   2.052   7.162   3.827  0.2783 -0.5443  2.7950
  205PA    C115 9117   1.888   7.273   3.731 -0.4410 -0.4082  1.2207
  205PA    H15R 9118   1.860   7.200   3.655 -1.4468 -0.9962  2.1282
  205PA    H15S 9119   1.796   7.323   3.763  0.2419  2.0717 -0.4007
  205PA    C114 9120   1.991   7.377   3.681  0.7909  0.1538 -0.0670
  205PA    H14R 9121   1.997   7.449   3.763 -1.6058 -1.3150  1.5203
  205PA    H14S 9122   2.094   7.340   3.674  1.2579  0.4995  3.2737
  205PA    C113 9123   1.961   7.445   3.541  0.2913 -0.0603 -0.5227
  205PA    H13R 9124   1.860   7.485   3.550 -0.2054 -1.3819  0.0925
  205PA    H13S 9125   2.035   7.523   3.518  1.8042 -1.6212 -1.2040
  205PA    C112 9126   1.965   7.362   3.414  0.6300 -0.4244 -0.0212
  205PA    H12R 9127   2.045   7.288   3.421  0.2616 -0.8467 -0.2238
  205PA    H12S 9128   1.876   7.298   3.408  1.0481 -0.9218 -1.1984
  205PA    C111 9129   1.983   7.420   3.276  0.3943  0.3724 -0.1671
  205PA    H11R 9130   2.010   7.343   3.203  2.9412  0.0531  0.9848
  205PA    H11S 9131   1.894   7.473   3.243  1.5284  1.0684 -2.3168
  205PA    C110 9132   2.103   7.519   3.274 -0.0722  0.9048  0.9940
  205PA    H10R 9133   2.060   7.603   3.329 -0.6748  1.0460  0.3281
  205PA    H10S 9134   2.174   7.463   3.335 -0.5835  0.1488  0.9048
  205PA     C19 9135   2.161   7.557   3.131  0.0768  0.5961  0.0632
  205PA     H9R 9136   2.232   7.640   3.145 -0.1287  0.8051 -0.1333
  205PA     H9S 9137   2.210   7.470   3.088 -0.9300  0.8392 -1.6542
  205PA     C18 9138   2.043   7.597   3.039  0.3614 -0.0948  0.5739
  205PA     H8R 9139   1.963   7.526   3.061  0.7944 -0.9932 -0.6440
  205PA     H8S 9140   2.002   7.697   3.054 -0.1705 -0.1480 -0.4056
  205PA     C17 9141   2.087   7.578   2.889 -0.1604 -0.2803  0.4574
  205PA     H7R 9142   2.132   7.479   2.873  1.0264  0.5321 -1.5878
  205PA     H7S 9143   1.995   7.591   2.832 -0.8603  2.7662  2.0833
  205PA     C16 9144   2.173   7.701   2.860 -0.1793  0.0144  0.3347
  205PA     H6R 9145   2.117   7.791   2.886  1.2451  1.2151 -0.5372
  205PA     H6S 9146   2.257   7.686   2.928  0.4200 -0.3694 -0.4657
  205PA     C15 9147   2.227   7.723   2.717  1.1176 -0.3153  0.1398
  205PA     H5R 9148   2.305   7.799   2.715 -0.2141  1.1186  0.3902
  205PA     H5S 9149   2.274   7.633   2.676  0.1137 -0.6659 -0.2871
  205PA     C14 9150   2.098   7.769   2.631  0.2483  0.0582  0.8425
  205PA     H4R 9151   2.029   7.686   2.619  0.4926 -0.2966  1.8083
  205PA     H4S 9152   2.054   7.845   2.696  2.2722  0.3188  1.9829
  205PA     C13 9153   2.136   7.843   2.497  0.0503 -0.7972 -0.2532
  205PA     H3R 9154   2.169   7.767   2.426  1.1004 -0.9746  0.4005
  205PA     H3S 9155   2.050   7.898   2.458  1.3054 -0.7323 -3.1382
  205PA     C12 9156   2.246   7.952   2.510 -0.3106  0.0248  0.3017
  205PA     H2R 9157   2.209   8.038   2.567 -1.0452  1.5183 -2.2895
  205PA     H2S 9158   2.338   7.916   2.555 -0.5063 -0.5762  0.2209
  206PC     C11 9159   2.280   8.002   2.375 -0.4666  0.1175  0.8495
  206PC     O12 9160   2.236   7.950   2.270  0.1301  0.5323 -0.0075
  206PC     O11 9161   2.366   8.109   2.368 -0.1352 -0.7061  0.1140
  206PC      C1 9162   2.394   8.163   2.232  0.2727 -0.3907 -0.0433
  206PC      HR 9163   2.479   8.233   2.232  0.4405 -0.4373  3.2327
  206PC      HS 9164   2.430   8.075   2.178  1.9702  1.1005 -1.4769
  206PC      C2 9165   2.264   8.225   2.171 -0.0870 -0.2917  0.1277
  206PC      HX 9166   2.177   8.159   2.175 -0.8284  0.5115 -1.6011
  206PC      C3 9167   2.290   8.277   2.029 -0.2037  0.3022 -0.2219
  206PC      HA 9168   2.306   8.192   1.961 -1.9214 -0.9701  0.8901
  206PC      HB 9169   2.195   8.322   2.000 -0.6650 -0.9052 -0.6887
  206PC     O31 9170   2.386   8.382   2.012 -0.2145 -0.1720 -0.1965
  206PC     P31 9171   2.519   8.357   1.942 -0.3627  0.0758  0.1874
  206PC     O32 9172   2.482   8.351   1.786 -0.4930  0.6468 -0.6172
  206PC     C31 9173   2.462   8.466   1.700 -0.0736 -0.1771  0.1478
  206PC     H1A 9174   2.380   8.523   1.744 -0.4842 -1.5975  1.3326
  206PC     H1B 9175   2.553   8.526   1.698 -0.4287  0.4032  0.9311
  206PC     C32 9176   2.435   8.409   1.565  0.0590 -0.3035 -0.3469
  206PC     H2A 9177   2.521   8.350   1.533  1.2158  1.2462 -0.1769
  206PC     H2B 9178   2.339   8.358   1.575 -1.7089  2.9173  0.6189
  206PC     N31 9179   2.412   8.507   1.452  0.8092 -0.0229  0.5883
  206PC     C33 9180   2.298   8.596   1.496  0.7536  0.8372 -0.2252
  206PC     H3A 9181   2.261   8.653   1.411 -1.6254 -0.9462 -0.4752
  206PC     H3B 9182   2.218   8.538   1.542  0.8856  1.3473  0.6694
  206PC     H3C 9183   2.334   8.664   1.573 -0.9283  1.2762  0.2076
  206PC     C34 9184   2.536   8.572   1.405 -0.1697  0.2311  0.4936
  206PC     H4A 9185   2.618   8.499   1.402 -3.2275 -3.5373  0.0443
  206PC     H4B 9186   2.522   8.601   1.301  0.4470 -1.0649  0.0238
  206PC     H4C 9187   2.554   8.661   1.465 -0.4367  2.1019 -2.0504
  206PC     C35 9188   2.357   8.432   1.338  0.4286 -0.7820 -0.5549
  206PC     H5A 9189   2.305   8.506   1.277 -1.6521 -1.9970 -0.3049
  206PC     H5B 9190   2.281   8.360   1.369  0.4823 -1.2602 -1.5036
  206PC     H5C 9191   2.446   8.396   1.285  1.0086 -0.7089  0.3357
  206PC     O33 9192   2.600   8.477   1.968 -0.0933  0.2562 -0.0874
  206PC     O34 9193   2.572   8.225   1.986 -0.0495 -0.3508 -0.8919
  206PC     O21 9194   2.238   8.338   2.250 -0.3677  0.0522  0.6228
  206PC     C21 9195   2.142   8.322   2.355  0.3639  0.5275 -0.6286
  206PC     O22 9196   2.071   8.228   2.367  0.0837  0.3869  0.8396
  207OL     C12 9197   2.131   8.441   2.450 -0.3575 -0.6196  0.1216
  207OL     H2R 9198   2.027   8.473   2.458 -0.7279 -1.8795  0.5281
  207OL     H2S 9199   2.185   8.526   2.408  1.6430 -1.8224  0.1174
  207OL     C13 9200   2.191   8.408   2.585  0.0342 -0.1195 -0.3037
  207OL     H3R 9201   2.180   8.301   2.604  0.6720 -0.3680 -1.2614
  207OL     H3S 9202   2.136   8.470   2.656  0.7603  1.3549 -0.9960
  207OL     C14 9203   2.345   8.442   2.596  0.1277 -0.4213 -0.1478
  207OL     H4R 9204   2.364   8.548   2.578 -0.0024 -0.4072 -0.2012
  207OL     H4S 9205   2.400   8.373   2.531  0.6227  1.0387 -1.3255
  207OL     C15 9206   2.374   8.429   2.750  0.3594 -0.3185 -0.0090
  207OL     H5R 9207   2.481   8.450   2.761 -0.2489  2.6882  1.0498
  207OL     H5S 9208   2.355   8.329   2.790  0.7369  0.3842  2.0086
  207OL     C16 9209   2.300   8.536   2.832 -0.3164  0.2053  0.3748
  207OL     H6R 9210   2.194   8.512   2.835 -0.4558  0.7202 -0.2679
  207OL     H6S 9211   2.308   8.636   2.789  0.6688 -0.3321 -0.7525
  207OL     C17 9212   2.360   8.546   2.972 -0.9653  0.9330  0.0261
  207OL     H7R 9213   2.465   8.572   2.957 -0.8191  0.5648  0.3789
  207OL     H7S 9214   2.367   8.450   3.024  3.7751  0.2379 -1.4038
  207OL     C18 9215   2.292   8.651   3.061 -0.2899 -0.3096  0.3208
  207OL     H8R 9216   2.188   8.617   3.065 -0.4040 -0.8733 -3.6368
  207OL     H8S 9217   2.298   8.748   3.011  1.2852 -0.4024  0.2880
  207OL     C19 9218   2.359   8.678   3.194  0.2835  0.6141 -0.7306
  207OL     H9R 9219   2.466   8.697   3.193  0.1731  1.5133  0.7062
  207OL    C110 9220   2.309   8.677   3.317  0.6178 -0.2543 -0.4599
  207OL    H10R 9221   2.366   8.685   3.409  0.7366 -2.3653 -0.3050
  207OL    C111 9222   2.156   8.662   3.345  0.2998 -0.4182 -0.3651
  207OL    H11R 9223   2.136   8.560   3.379 -0.4776  0.2409  1.2648
  207OL    H11S 9224   2.097   8.685   3.256  0.1024 -1.5020 -0.5256
  207OL    C112 9225   2.116   8.762   3.455 -0.2406  0.9490  0.3245
  207OL    H12R 9226   2.099   8.858   3.406  1.7690 -0.3007 -3.2023
  207OL    H12S 9227   2.196   8.764   3.529  1.5854  0.2043 -1.5550
  207OL    C113 9228   2.004   8.726   3.549  0.7471  0.3900  0.4638
  207OL    H13R 9229   2.042   8.642   3.607  0.0658 -0.0645  0.2591
  207OL    H13S 9230   1.915   8.687   3.500  0.3807  0.6564  0.9132
  207OL    C114 9231   1.966   8.834   3.655 -0.3730  0.2988  0.0744
  207OL    H14R 9232   1.901   8.782   3.726  1.9151  0.0136  2.0897
  207OL    H14S 9233   1.917   8.922   3.613 -1.6373  0.3089  1.4755
  207OL    C115 9234   2.090   8.892   3.738  0.0908  0.0533 -0.5629
  207OL    H15R 9235   2.050   8.955   3.818 -1.3519 -0.1504 -1.0951
  207OL    H15S 9236   2.143   8.963   3.674  0.4881  0.1676 -0.1096
  207OL    C116 9237   2.185   8.785   3.803  0.8186  0.0376  0.0127
  207OL    H16R 9238   2.251   8.744   3.726  2.3081 -0.3974  1.4408
  207OL    H16S 9239   2.124   8.703   3.842  1.7864 -0.9582 -0.5038
  207OL    C117 9240   2.270   8.846   3.917  0.4466  0.1693  0.1559
  207OL    H17R 9241   2.203   8.908   3.977  2.1385  0.8621  1.4079
  207OL    H17S 9242   2.352   8.903   3.873  0.6995  0.5059  1.0314
  207OL    C118 9243   2.325   8.737   4.010  0.3189  0.1150  0.0591
  207OL    H18R 9244   2.343   8.776   4.110  1.5131 -1.8181  0.6442
  207OL    H18S 9245   2.414   8.691   3.966 -0.7539  0.2023 -2.4037
  207OL    H18T 9246   2.250   8.659   4.027  0.8327 -0.3911  0.0390
  208PA    C116 9247   2.237   8.404   3.872  0.2767 -0.0374  0.3457
  208PA    H16R 9248   2.287   8.418   3.968 -0.6383 -0.4107  0.8913
  208PA    H16S 9249   2.177   8.313   3.875 -0.8847  0.5784 -1.8240
  208PA    H16T 9250   2.166   8.486   3.857 -0.2015 -0.7716 -1.6271
  208PA    C115 9251   2.341   8.394   3.765 -0.6387 -0.4041  0.5451
  208PA    H15R 9252   2.383   8.493   3.747  0.7925 -0.7175  2.0077
  208PA    H15S 9253   2.420   8.332   3.807 -0.2524 -0.0062  0.4085
  208PA    C114 9254   2.279   8.336   3.640  0.0361 -0.0053  0.0424
  208PA    H14R 9255   2.242   8.238   3.670 -1.7960  0.8097  0.6358
  208PA    H14S 9256   2.198   8.406   3.614  0.3094  1.7263  3.3075
  208PA    C113 9257   2.366   8.331   3.512 -0.4938 -0.4284 -0.0682
  208PA    H13R 9258   2.315   8.316   3.417  0.8455 -0.7119 -0.7765
  208PA    H13S 9259   2.412   8.430   3.501 -1.9365  0.5166  1.8827
  208PA    C112 9260   2.488   8.231   3.521  0.2115 -0.6323  0.4813
  208PA    H12R 9261   2.567   8.273   3.584 -0.2914  0.9763  0.0898
  208PA    H12S 9262   2.453   8.133   3.554  0.7482 -1.4660 -1.2902
  208PA    C111 9263   2.543   8.219   3.380 -0.2277 -0.2053 -0.2202
  208PA    H11R 9264   2.620   8.143   3.397 -0.6376 -0.5689  0.0344
  208PA    H11S 9265   2.464   8.170   3.323  0.2744 -1.6296  0.2543
  208PA    C110 9266   2.605   8.340   3.304  0.1078  0.3547 -0.4128
  208PA    H10R 9267   2.538   8.425   3.316 -1.7305 -0.9164 -1.2539
  208PA    H10S 9268   2.700   8.365   3.353 -0.4524  0.1055  0.8237
  208PA     C19 9269   2.653   8.311   3.159  0.2508 -0.1935  0.5880
  208PA     H9R 9270   2.716   8.222   3.159  1.8219  0.8932  0.3792
  208PA     H9S 9271   2.571   8.293   3.089  1.5841 -0.2130 -0.9917
  208PA     C18 9272   2.737   8.428   3.104  0.3824  0.9316  0.5972
  208PA     H8R 9273   2.677   8.519   3.113  0.1166  0.8848 -0.5417
  208PA     H8S 9274   2.822   8.439   3.171  0.3377  2.2605  0.4519
  208PA     C17 9275   2.793   8.412   2.959 -0.9840  0.1245  0.2520
  208PA     H7R 9276   2.862   8.327   2.947 -2.5461 -0.9351 -2.0351
  208PA     H7S 9277   2.707   8.386   2.897 -0.4757 -1.4644  0.1405
  208PA     C16 9278   2.872   8.541   2.916 -0.1544  0.1758  0.2953
  208PA     H6R 9279   2.816   8.631   2.943 -0.4874  0.8671 -2.3257
  208PA     H6S 9280   2.969   8.549   2.965  0.1556  1.3761 -0.4567
  208PA     C15 9281   2.908   8.550   2.766 -0.0568 -0.1103  0.7393
  208PA     H5R 9282   2.971   8.639   2.763 -1.7853  1.1386  0.4370
  208PA     H5S 9283   2.963   8.463   2.728 -1.6082 -0.4659 -0.8031
  208PA     C14 9284   2.774   8.568   2.677 -0.2785 -0.3000  0.3251
  208PA     H4R 9285   2.715   8.477   2.690 -1.3955  0.6199  1.8190
  208PA     H4S 9286   2.721   8.655   2.715  0.4371 -0.2970  1.3500
  208PA     C13 9287   2.797   8.599   2.530 -0.6638  0.5541 -0.6128
  208PA     H3R 9288   2.837   8.508   2.485  0.0777 -0.3651  1.7305
  208PA     H3S 9289   2.700   8.620   2.486  0.6725  0.3545 -3.9576
  208PA     C12 9290   2.885   8.723   2.503 -0.1965 -0.1038  0.2498
  208PA     H2R 9291   2.857   8.809   2.566  2.3052 -1.0218  2.8317
  208PA     H2S 9292   2.985   8.696   2.538  0.5577 -1.5203 -2.7148
  209PC     C11 9293   2.876   8.761   2.356  0.1474 -0.6409 -0.4327
  209PC     O12 9294   2.819   8.705   2.272 -0.1184  0.7454  1.0465
  209PC     O11 9295   2.972   8.846   2.320 -0.0954  0.1303  0.0730
  209PC      C1 9296   2.968   8.908   2.187  0.0833 -0.2356 -0.3114
  209PC      HR 9297   3.045   8.984   2.176  1.2280 -1.5584 -2.1550
  209PC      HS 9298   2.975   8.826   2.114 -0.3235 -1.7088  1.2248
  209PC      C2 9299   2.838   8.984   2.163  0.2512  0.1299 -0.4761
  209PC      HX 9300   2.756   8.912   2.158  0.1159  0.3226 -1.1816
  209PC      C3 9301   2.854   9.082   2.043  0.3468 -0.1370 -0.7365
  209PC      HA 9302   2.923   9.161   2.076  0.9695 -0.7350 -0.5722
  209PC      HB 9303   2.907   9.026   1.966  0.9625 -1.0447  0.3084
  209PC     O31 9304   2.723   9.137   1.994 -0.1793  0.1825  0.0285
  209PC     P31 9305   2.632   9.068   1.884  0.2523  0.2891 -0.1532
  209PC     O32 9306   2.671   9.135   1.749  0.1300  0.4527  0.2147
  209PC     C31 9307   2.790   9.104   1.684  0.1286  1.2235  0.5740
  209PC     H1A 9308   2.866   9.103   1.763  0.9117  0.8062 -0.1718
  209PC     H1B 9309   2.794   9.003   1.643 -3.6362  1.3154 -0.3410
  209PC     C32 9310   2.830   9.214   1.585  0.1266  0.5232  0.3946
  209PC     H2A 9311   2.811   9.305   1.642  0.1363  0.6429  0.2079
  209PC     H2B 9312   2.938   9.202   1.568  0.2240  1.6892  0.0968
  209PC     N31 9313   2.757   9.218   1.457 -0.9198  0.0632 -0.1692
  209PC     C33 9314   2.845   9.302   1.373  0.4427 -0.3632  0.3164
  209PC     H3A 9315   2.938   9.247   1.356  1.0787  1.3777 -2.3297
  209PC     H3B 9316   2.807   9.318   1.273  1.0915  1.9043  0.3806
  209PC     H3C 9317   2.853   9.399   1.424  0.6762 -0.1061 -0.2097
  209PC     C34 9318   2.725   9.085   1.395  0.2303 -0.5893  0.1148
  209PC     H4A 9319   2.646   9.037   1.454 -2.3124  0.2011 -2.4281
  209PC     H4B 9320   2.679   9.099   1.297  0.6771  1.3576  0.1504
  209PC     H4C 9321   2.812   9.020   1.387  0.7800 -0.0195  1.2703
  209PC     C35 9322   2.630   9.298   1.474  0.1190  0.7778  0.0469
  209PC     H5A 9323   2.579   9.296   1.378 -0.3794 -0.3967  0.3261
  209PC     H5B 9324   2.655   9.401   1.503 -0.8262  2.0571 -3.2227
  209PC     H5C 9325   2.582   9.236   1.550  0.4645  0.2990 -0.1188
  209PC     O33 9326   2.659   8.923   1.875 -0.2206  0.4447 -0.5406
  209PC     O34 9327   2.494   9.108   1.922  0.5154 -0.0966 -0.1164
  209PC     O21 9328   2.836   9.086   2.278  0.0887  0.6582 -0.2045
  209PC     C21 9329   2.750   9.060   2.375  0.5584 -0.6839 -0.5191
  209PC     O22 9330   2.678   8.961   2.379 -0.6419  0.3719  0.6045
  210OL     C12 9331   2.745   9.180   2.474 -0.0658  0.3364  0.7384
  210OL     H2R 9332   2.639   9.187   2.501 -0.2658 -2.5702  0.9953
  210OL     H2S 9333   2.769   9.273   2.423 -0.3933 -1.3670 -2.7692
  210OL     C13 9334   2.834   9.147   2.590 -0.9005  0.3778  0.7493
  210OL     H3R 9335   2.931   9.153   2.542 -2.2259  1.4508 -1.9857
  210OL     H3S 9336   2.810   9.052   2.639  3.4255 -1.0011  0.5963
  210OL     C14 9337   2.825   9.260   2.693  0.8257 -0.2519  0.9113
  210OL     H4R 9338   2.725   9.259   2.735  0.7788 -0.5996  0.7969
  210OL     H4S 9339   2.851   9.352   2.639 -1.2999  0.6959  1.4013
  210OL     C15 9340   2.922   9.246   2.815 -1.0759  0.2804 -0.3355
  210OL     H5R 9341   3.028   9.244   2.787 -0.5518  3.2955  1.0844
  210OL     H5S 9342   2.897   9.156   2.871  3.6056 -0.4270  1.0276
  210OL     C16 9343   2.905   9.375   2.900  0.1670 -0.4534 -0.9982
  210OL     H6R 9344   2.807   9.380   2.948  0.3822 -1.1014 -0.4745
  210OL     H6S 9345   2.906   9.462   2.835  1.1329 -0.0560 -0.4660
  210OL     C17 9346   3.011   9.384   3.013 -0.1001 -0.4236  0.2363
  210OL     H7R 9347   3.103   9.355   2.962 -1.2290 -1.4790 -1.2786
  210OL     H7S 9348   3.001   9.301   3.082  0.0899  0.9238  1.9513
  210OL     C18 9349   3.027   9.519   3.085  0.0005  0.7388  0.5124
  210OL     H8R 9350   2.932   9.546   3.133 -0.2007 -0.0941  0.5883
  210OL     H8S 9351   3.044   9.597   3.010 -2.7563  1.5538  0.6169
  210OL     C19 9352   3.128   9.513   3.190  0.1602  0.3108 -0.3652
  210OL     H9R 9353   3.201   9.433   3.183  0.7465  0.9800 -2.5994
  210OL    C110 9354   3.162   9.616   3.263 -0.1112 -0.0085  0.3895
  210OL    H10R 9355   3.256   9.616   3.318 -0.0639 -0.4846  0.3139
  210OL    C111 9356   3.085   9.747   3.266 -0.2344  0.2247 -0.5950
  210OL    H11R 9357   2.981   9.732   3.235 -0.2022  0.5495 -0.8636
  210OL    H11S 9358   3.132   9.820   3.200  0.6679  1.3255  1.1873
  210OL    C112 9359   3.085   9.804   3.407  0.4229 -0.1392 -0.8758
  210OL    H12R 9360   3.065   9.911   3.399  3.0811  0.4797 -0.3038
  210OL    H12S 9361   3.187   9.815   3.447 -1.1042  0.7781  3.3124
  210OL    C113 9362   3.002   9.725   3.516 -0.0963 -0.6847 -0.4514
  210OL    H13R 9363   3.036   9.622   3.508 -2.1396 -1.3497 -0.9904
  210OL    H13S 9364   2.894   9.728   3.501 -0.1081 -1.8443 -0.6220
  210OL    C114 9365   3.029   9.783   3.665  0.8347 -0.5754  1.0832
  210OL    H14R 9366   3.009   9.890   3.668  1.0611 -0.3383 -2.1567
  210OL    H14S 9367   3.134   9.776   3.694  0.5783  0.5009  2.3520
  210OL    C115 9368   2.943   9.698   3.763 -0.2074 -0.0565  0.3083
  210OL    H15R 9369   2.837   9.692   3.739 -0.1463 -2.2854  0.3585
  210OL    H15S 9370   2.945   9.762   3.851 -0.1427  0.5925 -0.1581
  210OL    C116 9371   2.988   9.550   3.788 -0.5768 -0.3743 -0.5645
  210OL    H16R 9372   3.075   9.539   3.854 -1.5794 -3.6251  0.4028
  210OL    H16S 9373   3.023   9.508   3.693 -1.0364  0.5956 -1.1834
  210OL    C117 9374   2.871   9.463   3.848 -0.3378  0.4254  0.3457
  210OL    H17R 9375   2.786   9.467   3.779 -0.1751  0.9381  0.1732
  210OL    H17S 9376   2.835   9.498   3.945 -1.3061  0.2188  0.0759
  210OL    C118 9377   2.923   9.318   3.855 -0.2632  0.3561  0.7335
  210OL    H18R 9378   3.016   9.319   3.912  1.3071 -0.9377 -1.6395
  210OL    H18S 9379   2.949   9.266   3.763  1.3332  0.9183  0.8435
  210OL    H18T 9380   2.849   9.255   3.904  1.3227 -1.4659  0.9011
  211PA    C116 9381   3.442   2.846   3.740 -0.1248  0.3984  0.3392
  211PA    H16R 9382   3.422   2.762   3.806  0.7499  1.0573  1.4710
  211PA    H16S 9383   3.359   2.841   3.669  1.3113  1.3434 -1.4693
  211PA    H16T 9384   3.431   2.943   3.788 -1.9090  1.4789 -1.9958
  211PA    C115 9385   3.588   2.841   3.682  0.0045 -0.1650  0.2591
  211PA    H15R 9386   3.607   2.933   3.625 -1.6482  0.9409  1.3795
  211PA    H15S 9387   3.658   2.849   3.765 -0.2837  0.9849  0.4164
  211PA    C114 9388   3.598   2.726   3.586  0.6611 -0.7025  0.2237
  211PA    H14R 9389   3.579   2.631   3.636  3.8411 -0.2195  2.7134
  211PA    H14S 9390   3.515   2.746   3.519  1.1383 -2.4096 -0.9343
  211PA    C113 9391   3.737   2.728   3.518 -0.1737  0.2055 -0.4753
  211PA    H13R 9392   3.743   2.831   3.484  2.3347  0.0721 -0.6556
  211PA    H13S 9393   3.820   2.722   3.589 -0.7989 -0.5657  0.2278
  211PA    C112 9394   3.744   2.627   3.403 -0.0038 -0.0920  0.4810
  211PA    H12R 9395   3.841   2.621   3.354 -0.6297 -0.9629 -0.6951
  211PA    H12S 9396   3.733   2.525   3.440  0.1115 -0.3182 -0.0869
  211PA    C111 9397   3.637   2.666   3.295 -0.1849 -0.6040  0.2123
  211PA    H11R 9398   3.535   2.661   3.334 -1.8730 -0.1144 -3.6644
  211PA    H11S 9399   3.647   2.771   3.268  0.2032 -0.8829 -0.7386
  211PA    C110 9400   3.649   2.576   3.173 -0.6565  0.3421 -0.5427
  211PA    H10R 9401   3.755   2.570   3.150  0.2245  3.0468  2.2707
  211PA    H10S 9402   3.618   2.475   3.202  0.5330  0.5551  1.6030
  211PA     C19 9403   3.577   2.617   3.040 -0.2209 -0.7757 -1.1499
  211PA     H9R 9404   3.472   2.620   3.071  0.2867 -0.3243  0.6348
  211PA     H9S 9405   3.611   2.718   3.018  0.3842 -0.2041  1.9064
  211PA     C18 9406   3.604   2.514   2.926 -0.1199  0.8751 -0.1415
  211PA     H8R 9407   3.710   2.487   2.925 -0.2603  0.3352 -0.5378
  211PA     H8S 9408   3.557   2.420   2.952  0.7966  1.0668  2.4407
  211PA     C17 9409   3.572   2.570   2.792 -0.8488 -0.2252 -0.2635
  211PA     H7R 9410   3.466   2.598   2.786 -1.0232 -0.7298  0.3242
  211PA     H7S 9411   3.629   2.661   2.776 -0.3508 -0.0991  1.9534
  211PA     C16 9412   3.606   2.466   2.686  0.1902 -0.2811  0.1292
  211PA     H6R 9413   3.576   2.516   2.594 -1.5971  1.7709  1.7265
  211PA     H6S 9414   3.714   2.448   2.685  0.0233 -1.3071 -0.8734
  211PA     C15 9415   3.534   2.329   2.677  0.0165 -0.1320  0.5680
  211PA     H5R 9416   3.592   2.271   2.605  1.2996 -0.3825  1.7625
  211PA     H5S 9417   3.551   2.291   2.778  3.4022  1.1974  0.6216
  211PA     C14 9418   3.381   2.337   2.655 -0.4140 -0.6000 -0.4257
  211PA     H4R 9419   3.342   2.235   2.654 -1.4280 -0.2263 -0.1557
  211PA     H4S 9420   3.347   2.392   2.744  0.7037 -1.1653  0.3711
  211PA     C13 9421   3.340   2.405   2.518 -0.4062  0.2752  0.5995
  211PA     H3R 9422   3.234   2.430   2.523 -0.5906 -0.1529 -0.8275
  211PA     H3S 9423   3.391   2.502   2.512  0.4455 -0.1913  0.0297
  211PA     C12 9424   3.375   2.329   2.384 -0.0021 -0.4000 -0.0688
  211PA     H2R 9425   3.481   2.342   2.361 -0.3435  2.0821 -0.5243
  211PA     H2S 9426   3.355   2.222   2.383  0.6303 -0.5323 -1.9264
  212PC     C11 9427   3.307   2.383   2.259  0.0027  0.0942  0.3607
  212PC     O12 9428   3.351   2.474   2.191 -0.1032 -0.2095 -0.2991
  212PC     O11 9429   3.194   2.315   2.230  0.0391 -0.2214 -0.7459
  212PC      C1 9430   3.125   2.345   2.103  0.1468 -0.6207  0.1897
  212PC      HR 9431   3.016   2.334   2.108 -0.1102  0.2039 -2.2736
  212PC      HS 9432   3.138   2.448   2.069  1.8671 -0.9696 -0.3003
  212PC      C2 9433   3.189   2.251   2.001 -0.1847 -0.5735 -0.0453
  212PC      HX 9434   3.297   2.270   2.002 -0.4371  0.9770  1.1566
  212PC      C3 9435   3.134   2.285   1.858 -0.5964  0.1168  0.3947
  212PC      HA 9436   3.030   2.316   1.874 -0.2317  2.5521 -1.5052
  212PC      HB 9437   3.196   2.360   1.810  0.3314 -0.3167  0.8812
  212PC     O31 9438   3.127   2.171   1.771 -0.0364  0.2521 -0.0425
  212PC     P31 9439   3.262   2.100   1.715  0.0412 -0.0330 -0.0258
  212PC     O32 9440   3.215   2.004   1.597  0.0992  0.0806 -0.1740
  212PC     C31 9441   3.207   2.045   1.461 -0.8168  0.3739 -0.4469
  212PC     H1A 9442   3.147   1.972   1.406 -1.8756 -0.2881  1.4891
  212PC     H1B 9443   3.164   2.146   1.464  1.9771  1.6309  1.4761
  212PC     C32 9444   3.347   2.036   1.406  0.1222 -0.3436 -0.4514
  212PC     H2A 9445   3.409   2.103   1.466 -3.5437  1.2311  1.8884
  212PC     H2B 9446   3.379   1.932   1.410  1.1459 -0.0578 -0.7448
  212PC     N31 9447   3.374   2.075   1.257  0.2464  0.9958 -0.4287
  212PC     C33 9448   3.516   2.039   1.227 -0.5011 -0.1286 -0.1875
  212PC     H3A 9449   3.586   2.107   1.275 -2.3639 -0.2700  3.0253
  212PC     H3B 9450   3.543   1.939   1.262 -1.1228  0.1304  1.0646
  212PC     H3C 9451   3.537   2.036   1.120  0.5426  1.1394 -0.0379
  212PC     C34 9452   3.286   1.988   1.171 -0.1472  1.1392 -0.1938
  212PC     H4A 9453   3.181   2.003   1.199 -1.3404 -3.0680 -1.7071
  212PC     H4B 9454   3.299   1.995   1.063 -1.3883  0.2415 -0.4178
  212PC     H4C 9455   3.315   1.887   1.198  1.6996  1.7069  0.1014
  212PC     C35 9456   3.353   2.211   1.218 -1.0041 -0.1887 -0.4643
  212PC     H5A 9457   3.397   2.225   1.119  0.0173 -0.0188  0.0022
  212PC     H5B 9458   3.400   2.275   1.293 -0.9621  1.1055 -1.5479
  212PC     H5C 9459   3.245   2.215   1.206 -1.2580 -0.4377  1.4627
  212PC     O33 9460   3.362   2.201   1.674 -0.3510  0.1846  0.5408
  212PC     O34 9461   3.301   2.003   1.824  0.1453 -0.5427 -0.2153
  212PC     O21 9462   3.156   2.118   2.047  0.3407  0.2374  0.3113
  212PC     C21 9463   3.257   2.049   2.102  0.2910  0.1495  0.9501
  212PC     O22 9464   3.373   2.081   2.114 -0.9587 -0.1672  0.0907
  213OL     C12 9465   3.213   1.914   2.150  0.1700  0.4319  0.7541
  213OL     H2R 9466   3.290   1.843   2.120  0.2639  1.0703 -0.5966
  213OL     H2S 9467   3.126   1.897   2.086 -0.7470  2.0712  1.5089
  213OL     C13 9468   3.177   1.912   2.296  0.0785 -0.6989 -0.4679
  213OL     H3R 9469   3.268   1.943   2.347 -0.7851  0.0420  0.6717
  213OL     H3S 9470   3.155   1.808   2.323  2.5114 -0.8506  1.2116
  213OL     C14 9471   3.071   2.004   2.348  0.2610 -0.8844  0.2325
  213OL     H4R 9472   2.997   1.998   2.268  0.9983 -0.0724 -0.5281
  213OL     H4S 9473   3.112   2.104   2.361 -1.3880 -0.0005 -0.8771
  213OL     C15 9474   3.015   1.959   2.479 -0.1327  0.5740  0.1867
  213OL     H5R 9475   2.977   1.859   2.461  0.3658  0.1878  1.1718
  213OL     H5S 9476   2.934   2.021   2.517  2.0131  2.3947  2.1492
  213OL     C16 9477   3.119   1.969   2.588 -0.7591  0.6198  0.0145
  213OL     H6R 9478   3.159   2.070   2.595  1.9530 -0.4093  0.6983
  213OL     H6S 9479   3.201   1.903   2.560  0.0460  1.8365 -0.5761
  213OL     C17 9480   3.060   1.930   2.716 -0.6090  0.2394  0.5658
  213OL     H7R 9481   3.019   1.829   2.705 -0.0571  0.0256  0.4721
  213OL     H7S 9482   2.973   1.993   2.737 -0.5427 -0.0443  1.7801
  213OL     C18 9483   3.168   1.938   2.821 -0.3978 -0.1357 -0.3520
  213OL     H8R 9484   3.206   2.040   2.821  0.7200 -0.5256  0.7166
  213OL     H8S 9485   3.250   1.868   2.803  1.9025  2.6513 -1.3230
  213OL     C19 9486   3.110   1.905   2.956  0.5923  0.0542  0.1386
  213OL     H9R 9487   3.038   1.824   2.952 -0.6947  1.1329  0.5241
  213OL    C110 9488   3.123   1.966   3.072 -0.0771  0.3254  0.4553
  213OL    H10R 9489   3.059   1.926   3.149 -1.7635 -2.3886 -2.1408
  213OL    C111 9490   3.211   2.093   3.091  0.5342 -0.0068  0.6697
  213OL    H11R 9491   3.158   2.188   3.086  1.1824  0.2893 -0.7732
  213OL    H11S 9492   3.294   2.088   3.020  1.2302  2.6528  1.1966
  213OL    C112 9493   3.275   2.093   3.233 -0.0818 -0.3446  0.1031
  213OL    H12R 9494   3.331   2.000   3.252 -1.2104 -0.9651  0.4673
  213OL    H12S 9495   3.204   2.096   3.315 -2.5743 -0.3841 -1.9162
  213OL    C113 9496   3.361   2.217   3.263  0.1061 -0.7099  0.0707
  213OL    H13R 9497   3.314   2.302   3.212 -0.7452 -0.8023  0.6941
  213OL    H13S 9498   3.459   2.220   3.215  0.7538 -0.1957  1.3787
  213OL    C114 9499   3.402   2.252   3.407 -0.7689 -0.0793  0.2041
  213OL    H14R 9500   3.487   2.319   3.415 -0.4226 -0.7425  3.1516
  213OL    H14S 9501   3.426   2.160   3.460  0.1702 -2.0992 -3.3803
  213OL    C115 9502   3.292   2.334   3.472 -0.5539  1.0470  0.4462
  213OL    H15R 9503   3.204   2.272   3.492 -0.0280  0.6997  1.7983
  213OL    H15S 9504   3.255   2.401   3.394 -1.4960 -1.0488 -0.9678
  213OL    C116 9505   3.335   2.412   3.599  0.2539 -0.1116  0.0734
  213OL    H16R 9506   3.254   2.474   3.636  0.5313  1.0124 -1.1081
  213OL    H16S 9507   3.412   2.483   3.567  1.4940 -0.6921  1.6659
  213OL    C117 9508   3.386   2.324   3.715 -0.2119  0.5349  0.0512
  213OL    H17R 9509   3.406   2.387   3.802  0.0499 -0.4834  0.7440
  213OL    H17S 9510   3.477   2.269   3.691 -0.3931  0.0366  0.4831
  213OL    C118 9511   3.274   2.230   3.763  0.1898  0.2560 -0.0424
  213OL    H18R 9512   3.241   2.163   3.684  0.8683  0.0394 -0.1452
  213OL    H18S 9513   3.190   2.294   3.794 -0.1738 -0.0842 -0.3154
  213OL    H18T 9514   3.312   2.168   3.844  2.3730 -1.1841 -2.0669
  214PA    C116 9515   0.393   2.138   4.096  0.2263  0.4016 -0.2380
  214PA    H16R 9516   0.494   2.159   4.133  0.7697  0.7506 -1.7987
  214PA    H16S 9517   0.360   2.038   4.126 -0.0365  0.1739 -1.2557
  214PA    H16T 9518   0.332   2.221   4.131 -0.0415 -0.2365  0.8364
  214PA    C115 9519   0.403   2.120   3.944 -0.3575 -0.0111 -0.3789
  214PA    H15R 9520   0.442   2.023   3.913  3.0799  0.3856  2.1942
  214PA    H15S 9521   0.303   2.135   3.902  0.2446 -0.0810 -1.9105
  214PA    C114 9522   0.493   2.233   3.888 -0.1647 -0.3158  0.0465
  214PA    H14R 9523   0.448   2.324   3.927 -2.3622 -1.4914  0.3938
  214PA    H14S 9524   0.590   2.225   3.938 -1.3055  1.1167  2.6652
  214PA    C113 9525   0.512   2.227   3.739 -0.0954 -0.4594  0.2355
  214PA    H13R 9526   0.564   2.133   3.719 -0.8858 -1.0412  0.8586
  214PA    H13S 9527   0.418   2.230   3.685 -1.5236 -1.9588  2.4934
  214PA    C112 9528   0.607   2.349   3.690  0.2635  0.6180 -0.5286
  214PA    H12R 9529   0.568   2.445   3.724  0.0158 -0.0349  1.1547
  214PA    H12S 9530   0.705   2.325   3.733 -0.2937 -1.8810 -0.5233
  214PA    C111 9531   0.633   2.359   3.535 -0.5291  0.4465 -0.3476
  214PA    H11R 9532   0.705   2.439   3.517  1.0092 -0.7160  0.2643
  214PA    H11S 9533   0.669   2.263   3.497  1.1579  0.3251  1.3846
  214PA    C110 9534   0.506   2.378   3.446  0.1354 -0.0941 -0.4040
  214PA    H10R 9535   0.464   2.282   3.414  0.4487 -0.3431 -0.0662
  214PA    H10S 9536   0.435   2.417   3.519  1.3581 -0.0745  0.8167
  214PA     C19 9537   0.529   2.468   3.321 -0.2037 -0.0310  0.2211
  214PA     H9R 9538   0.551   2.570   3.355  0.9188 -0.2904  0.3109
  214PA     H9S 9539   0.627   2.449   3.277 -0.4718  1.6117 -1.1866
  214PA     C18 9540   0.436   2.464   3.200  0.7828 -0.0161  0.7606
  214PA     H8R 9541   0.342   2.513   3.228  0.6370  1.7100 -2.2516
  214PA     H8S 9542   0.482   2.527   3.123  2.4575 -3.9571 -1.8204
  214PA     C17 9543   0.414   2.324   3.149 -0.1705 -0.2108  0.3571
  214PA     H7R 9544   0.500   2.270   3.110 -0.4440 -0.7642  0.5175
  214PA     H7S 9545   0.372   2.251   3.218  2.8602 -1.0951  1.4073
  214PA     C16 9546   0.317   2.319   3.026  0.0019 -0.4291  0.3245
  214PA     H6R 9547   0.227   2.373   3.058  1.3779  1.7625  0.6977
  214PA     H6S 9548   0.358   2.367   2.938 -1.2596 -0.9196 -0.5565
  214PA     C15 9549   0.295   2.174   2.986 -0.1222  0.5820  0.0937
  214PA     H5R 9550   0.239   2.118   3.061  1.3594  0.0539  0.8346
  214PA     H5S 9551   0.235   2.175   2.894  3.0223  1.1198 -2.1104
  214PA     C14 9552   0.426   2.093   2.937  0.3563 -0.3050 -0.2978
  214PA     H4R 9553   0.494   2.074   3.020  0.8730  2.9259  0.1820
  214PA     H4S 9554   0.380   2.006   2.891  0.0451 -0.7417  0.8108
  214PA     C13 9555   0.499   2.173   2.824 -0.6154 -0.2258  0.1531
  214PA     H3R 9556   0.423   2.222   2.762 -0.2963 -2.2677 -1.9654
  214PA     H3S 9557   0.567   2.251   2.859 -1.1896  1.5765 -2.4813
  214PA     C12 9558   0.586   2.084   2.737  0.0243  0.3827 -0.0321
  214PA     H2R 9559   0.680   2.048   2.778 -0.3838  0.2241  0.7975
  214PA     H2S 9560   0.533   1.990   2.716  0.5825  0.4289 -1.7868
  215PC     C11 9561   0.611   2.144   2.593 -0.2327  0.4245 -0.0689
  215PC     O12 9562   0.597   2.263   2.570  0.0922 -0.2408 -0.6574
  215PC     O11 9563   0.650   2.048   2.501  0.0723 -0.6916 -0.5947
  215PC      C1 9564   0.655   2.098   2.367  0.0051 -0.6973  0.4908
  215PC      HR 9565   0.671   2.207   2.366  3.3162 -1.0004  2.8999
  215PC      HS 9566   0.743   2.054   2.321  1.7076  1.8237  1.1345
  215PC      C2 9567   0.528   2.055   2.292 -0.4937  0.1443 -0.3404
  215PC      HX 9568   0.513   1.948   2.305  1.3465 -0.3465 -1.7459
  215PC      C3 9569   0.555   2.068   2.140 -0.0594  0.4005  0.8110
  215PC      HA 9570   0.619   1.988   2.101 -0.7031  0.3313 -0.1380
  215PC      HB 9571   0.457   2.056   2.093  0.3819  1.5230 -0.4388
  215PC     O31 9572   0.617   2.203   2.104  0.4559 -0.1270  0.1720
  215PC     P31 9573   0.659   2.244   1.959  0.5371 -0.2003 -0.3241
  215PC     O32 9574   0.521   2.274   1.881 -0.1148  0.0402  0.0638
  215PC     C31 9575   0.444   2.171   1.820  0.9031 -0.4637  0.8640
  215PC     H1A 9576   0.499   2.077   1.809  3.1398  1.0231 -2.3712
  215PC     H1B 9577   0.350   2.153   1.874  0.5567 -1.2159  0.0397
  215PC     C32 9578   0.411   2.238   1.680 -0.5689 -0.6052 -0.3184
  215PC     H2A 9579   0.344   2.175   1.622 -0.2128 -2.2739  1.0016
  215PC     H2B 9580   0.358   2.333   1.688  1.6574  0.8655 -1.9175
  215PC     N31 9581   0.522   2.284   1.585  0.0640  0.6585  0.5930
  215PC     C33 9582   0.612   2.168   1.562  0.1265  0.1107  0.3807
  215PC     H3A 9583   0.545   2.088   1.529 -0.7947  0.9800  0.0856
  215PC     H3B 9584   0.692   2.195   1.492 -1.0287 -1.3906 -1.6487
  215PC     H3C 9585   0.654   2.147   1.660  2.4830  0.6857 -0.4392
  215PC     C34 9586   0.458   2.324   1.452  0.1809  0.0938 -0.5978
  215PC     H4A 9587   0.420   2.236   1.399  0.6606 -0.1558 -0.5329
  215PC     H4B 9588   0.379   2.398   1.466  0.0557 -0.4798  2.1171
  215PC     H4C 9589   0.535   2.354   1.380  0.9883  2.0362  1.0031
  215PC     C35 9590   0.604   2.400   1.639 -0.5493 -0.5274 -0.1829
  215PC     H5A 9591   0.666   2.433   1.556 -1.2044 -0.0222 -0.4803
  215PC     H5B 9592   0.671   2.375   1.721 -0.9905 -0.3535  0.2384
  215PC     H5C 9593   0.532   2.480   1.658 -0.0685 -0.1070 -0.1108
  215PC     O33 9594   0.734   2.372   1.967  0.6250  0.0839  0.1316
  215PC     O34 9595   0.718   2.125   1.899  0.6588 -0.3081 -0.4289
  215PC     O21 9596   0.416   2.142   2.327 -0.0772  0.6662  0.0245
  215PC     C21 9597   0.337   2.118   2.433 -0.1010  0.3005 -0.0779
  215PC     O22 9598   0.352   2.019   2.503 -0.2825 -0.4441  0.2655
  216OL     C12 9599   0.226   2.216   2.454  0.1673  1.1755 -0.5509
  216OL     H2R 9600   0.134   2.168   2.421  1.3139 -2.2725  0.8657
  216OL     H2S 9601   0.231   2.297   2.381 -0.2930  0.2018 -1.6987
  216OL     C13 9602   0.220   2.270   2.601 -0.2216 -0.2755 -0.0050
  216OL     H3R 9603   0.318   2.312   2.624 -0.3847 -0.2451  0.6479
  216OL     H3S 9604   0.205   2.190   2.674 -0.5033 -0.5167 -0.3219
  216OL     C14 9605   0.115   2.381   2.619  0.5518  0.0554  0.6613
  216OL     H4R 9606   0.010   2.353   2.602  0.6365  0.8540 -1.4728
  216OL     H4S 9607   0.128   2.459   2.543 -1.2125  0.8667  1.1279
  216OL     C15 9608   0.127   2.439   2.761 -0.1507  0.2504  0.1413
  216OL     H5R 9609   0.232   2.464   2.779 -0.5502  0.5971  2.2523
  216OL     H5S 9610   0.092   2.363   2.831  0.8357  0.6790  1.1105
  216OL     C16 9611   0.045   2.571   2.771 -0.0672  0.6723 -0.1661
  216OL     H6R 9612  -0.057   2.536   2.756  0.4534 -1.4954  1.0063
  216OL     H6S 9613   0.079   2.635   2.690  2.2101  1.4942  1.3481
  216OL     C17 9614   0.056   2.641   2.903 -0.0329 -0.5878  0.3782
  216OL     H7R 9615   0.014   2.584   2.987  0.8078  0.4026  1.5037
  216OL     H7S 9616  -0.008   2.729   2.897 -0.6422 -1.1225 -1.9678
  216OL     C18 9617   0.194   2.685   2.940  0.1164  1.0095  0.3380
  216OL     H8R 9618   0.257   2.599   2.964  0.0755  0.5798 -1.0263
  216OL     H8S 9619   0.185   2.744   3.032  0.7287  1.0707  0.3628
  216OL     C19 9620   0.262   2.774   2.837  0.6519 -0.6835  0.7622
  216OL     H9R 9621   0.212   2.867   2.814 -0.3487 -1.4294 -0.1843
  216OL    C110 9622   0.375   2.753   2.767 -0.1434  0.8140 -0.0291
  216OL    H10R 9623   0.402   2.819   2.685  1.1089  0.2781 -0.0841
  216OL    C111 9624   0.476   2.636   2.770 -0.4418 -0.9008  0.6451
  216OL    H11R 9625   0.453   2.556   2.699  0.4275 -2.2216  1.8210
  216OL    H11S 9626   0.467   2.586   2.866  0.1725  3.3218  3.1219
  216OL    C112 9627   0.622   2.687   2.751  0.2622  0.5109  0.3165
  216OL    H12R 9628   0.650   2.762   2.825  0.8145  0.8068 -0.1779
  216OL    H12S 9629   0.636   2.742   2.657 -0.6256 -1.7530 -1.2188
  216OL    C113 9630   0.711   2.560   2.763 -0.2619  0.0858 -0.0138
  216OL    H13R 9631   0.804   2.579   2.710 -1.6569  1.9275 -1.9674
  216OL    H13S 9632   0.670   2.478   2.704 -0.7040 -0.2736  0.7786
  216OL    C114 9633   0.741   2.522   2.911  0.0614 -0.2124  0.3914
  216OL    H14R 9634   0.650   2.495   2.966 -1.4611  2.3400 -0.6685
  216OL    H14S 9635   0.777   2.613   2.959  2.0189 -0.1633 -1.0397
  216OL    C115 9636   0.836   2.399   2.917  0.2366 -0.2889  0.6318
  216OL    H15R 9637   0.926   2.413   2.857  0.5286 -1.9552  0.6163
  216OL    H15S 9638   0.780   2.316   2.874 -1.3971  0.2652  1.6056
  216OL    C116 9639   0.872   2.372   3.069  0.6885  0.0212 -0.1631
  216OL    H16R 9640   0.777   2.346   3.117 -0.3467 -0.0582 -2.1297
  216OL    H16S 9641   0.900   2.470   3.109 -0.4248 -0.1282  1.0576
  216OL    C117 9642   0.967   2.251   3.083  0.2321  0.0969 -0.4339
  216OL    H17R 9643   1.021   2.254   3.178  0.4693 -2.7621 -0.3908
  216OL    H17S 9644   1.040   2.245   3.002  0.6173 -1.1848 -0.0322
  216OL    C118 9645   0.873   2.121   3.073 -0.2657 -0.5083 -0.4435
  216OL    H18R 9646   0.941   2.037   3.089  0.1591 -0.1663 -0.3999
  216OL    H18S 9647   0.821   2.102   2.979 -0.0893  0.5054 -0.7617
  216OL    H18T 9648   0.799   2.140   3.151  1.4806  1.6091  0.8279
  217PA    C116 9649  -0.177   5.386   3.796  0.6814 -0.2677 -0.2321
  217PA    H16R 9650  -0.186   5.289   3.846 -1.0634 -0.1984 -0.3735
  217PA    H16S 9651  -0.071   5.409   3.781  0.6771  1.4769  1.9329
  217PA    H16T 9652  -0.214   5.458   3.870 -0.0831  0.1295 -0.9876
  217PA    C115 9653  -0.267   5.384   3.666  0.2878 -0.2019  0.4624
  217PA    H15R 9654  -0.368   5.354   3.696  0.0502 -0.6191 -0.7082
  217PA    H15S 9655  -0.273   5.485   3.626  1.2075  0.1402  1.1566
  217PA    C114 9656  -0.220   5.284   3.560 -0.2846 -0.0853  0.3627
  217PA    H14R 9657  -0.115   5.303   3.533  0.1997 -1.5961  1.1048
  217PA    H14S 9658  -0.220   5.182   3.597 -0.5420  0.5775  2.2695
  217PA    C113 9659  -0.312   5.269   3.429 -0.3430 -0.1005 -0.3521
  217PA    H13R 9660  -0.282   5.181   3.371  1.5435  0.6618 -0.6277
  217PA    H13S 9661  -0.411   5.246   3.468  0.0594 -0.8463  0.2541
  217PA    C112 9662  -0.327   5.379   3.328  1.0120  0.3313 -0.2046
  217PA    H12R 9663  -0.406   5.360   3.255  2.0427  0.7376 -1.4574
  217PA    H12S 9664  -0.351   5.473   3.377 -1.4806  0.1530 -0.9242
  217PA    C111 9665  -0.198   5.391   3.247  0.1406 -0.1000 -0.0766
  217PA    H11R 9666  -0.121   5.413   3.322 -0.9788 -1.4756  1.5727
  217PA    H11S 9667  -0.185   5.293   3.199 -0.5037  0.0950 -0.6608
  217PA    C110 9668  -0.198   5.501   3.134 -0.5517 -0.1991  0.2230
  217PA    H10R 9669  -0.100   5.511   3.087 -0.2399 -0.2767  0.8351
  217PA    H10S 9670  -0.261   5.473   3.050  1.2725  1.4173 -1.7700
  217PA     C19 9671  -0.248   5.639   3.180 -0.1386  0.2655  1.3523
  217PA     H9R 9672  -0.355   5.625   3.195 -0.4767 -3.9791 -2.5053
  217PA     H9S 9673  -0.186   5.681   3.259  2.8133  2.9122 -2.0113
  217PA     C18 9674  -0.247   5.729   3.054 -0.5624 -1.1167 -0.3863
  217PA     H8R 9675  -0.302   5.687   2.969 -1.4150 -1.8000  0.4751
  217PA     H8S 9676  -0.308   5.818   3.071  1.1402  0.5752 -2.6648
  217PA     C17 9677  -0.105   5.769   3.007  0.1698 -0.0241  0.2454
  217PA     H7R 9678  -0.049   5.798   3.096  2.1801 -1.2404 -0.5587
  217PA     H7S 9679  -0.054   5.682   2.966 -0.1089 -0.3106  0.5050
  217PA     C16 9680  -0.108   5.874   2.894 -0.0360 -0.0256 -0.7727
  217PA     H6R 9681  -0.144   5.966   2.940  0.0179  0.1199 -1.0201
  217PA     H6S 9682  -0.007   5.898   2.862 -0.0384  0.3908 -0.4740
  217PA     C15 9683  -0.190   5.863   2.767  0.3514 -0.4762  0.4099
  217PA     H5R 9684  -0.165   5.764   2.727 -0.6590 -0.2989 -0.7137
  217PA     H5S 9685  -0.297   5.851   2.786  0.4377 -1.1375  0.5122
  217PA     C14 9686  -0.156   5.975   2.667 -0.0870 -0.5706 -0.0307
  217PA     H4R 9687  -0.200   6.065   2.708 -0.7997 -1.0765  0.3414
  217PA     H4S 9688  -0.047   5.983   2.667 -0.1491  0.3208 -0.0404
  217PA     C13 9689  -0.192   5.967   2.516  0.3600  0.2276  0.3180
  217PA     H3R 9690  -0.172   6.063   2.467 -0.3280  0.4690  0.4954
  217PA     H3S 9691  -0.136   5.890   2.463 -0.2730 -0.8713  1.1957
  217PA     C12 9692  -0.342   5.950   2.480 -0.2298 -0.5318  0.8763
  217PA     H2R 9693  -0.391   5.883   2.550 -0.3198 -3.0065 -1.3902
  217PA     H2S 9694  -0.376   6.054   2.482 -0.1410 -0.4633 -0.2037
  218PC     C11 9695  -0.368   5.901   2.336 -0.0907 -0.0325 -0.1606
  218PC     O12 9696  -0.389   5.977   2.242  0.3396 -0.2572  0.3771
  218PC     O11 9697  -0.389   5.768   2.328  0.4176 -0.3198 -0.2075
  218PC      C1 9698  -0.417   5.700   2.209 -0.4568 -0.7986  0.1753
  218PC      HR 9699  -0.479   5.617   2.243  1.6585 -2.3214  0.5340
  218PC      HS 9700  -0.469   5.764   2.137  2.4822 -1.2973 -2.6251
  218PC      C2 9701  -0.277   5.661   2.138  0.5063 -0.4080 -0.4503
  218PC      HX 9702  -0.222   5.753   2.116 -0.9084  0.3913 -0.7753
  218PC      C3 9703  -0.306   5.590   2.005  0.4438 -0.0287  0.3946
  218PC      HA 9704  -0.203   5.571   1.972  1.0037 -1.5831  2.7476
  218PC      HB 9705  -0.356   5.493   2.012  1.9949 -0.9056 -0.3380
  218PC     O31 9706  -0.366   5.677   1.908 -0.1683 -0.0191  0.2388
  218PC     P31 9707  -0.369   5.637   1.755  0.1806 -0.2877 -0.1310
  218PC     O32 9708  -0.233   5.697   1.706 -0.1547  0.5111  0.0838
  218PC     C31 9709  -0.201   5.836   1.697 -0.1858 -0.3222  0.4305
  218PC     H1A 9710  -0.259   5.887   1.619  1.3919 -0.3163 -0.7887
  218PC     H1B 9711  -0.230   5.868   1.798  1.1755  0.3125  0.6464
  218PC     C32 9712  -0.050   5.855   1.674 -0.7721 -0.4732  0.6201
  218PC     H2A 9713  -0.001   5.792   1.748 -0.9321 -1.8801 -0.4314
  218PC     H2B 9714  -0.015   5.822   1.576  1.3352 -0.6432  1.3896
  218PC     N31 9715   0.006   5.994   1.688 -0.8088 -0.4655 -0.3073
  218PC     C33 9716   0.148   5.997   1.644 -0.6458  0.0352 -0.3033
  218PC     H3A 9717   0.180   6.102   1.647 -0.4633 -0.0255  2.4294
  218PC     H3B 9718   0.208   5.939   1.714  0.9827 -0.5017 -2.0831
  218PC     H3C 9719   0.152   5.954   1.544  1.8002 -0.3842 -0.0800
  218PC     C34 9720  -0.058   6.080   1.599  0.3714 -0.7613  0.3250
  218PC     H4A 9721  -0.083   6.020   1.511  0.9265 -0.8862  0.2529
  218PC     H4B 9722  -0.153   6.104   1.647  0.5349  1.3449 -0.3010
  218PC     H4C 9723  -0.007   6.174   1.577  0.0822 -0.7006 -0.1221
  218PC     C35 9724  -0.009   6.032   1.835  0.7274 -0.7341 -0.4340
  218PC     H5A 9725   0.057   5.968   1.895  0.7636  0.4552  0.8524
  218PC     H5B 9726  -0.114   6.028   1.864  1.1198 -0.7313  1.0734
  218PC     H5C 9727   0.031   6.132   1.847  0.0267 -0.6554  1.6257
  218PC     O33 9728  -0.349   5.492   1.748  0.1989 -0.0211  0.4064
  218PC     O34 9729  -0.478   5.694   1.679  0.3681 -0.3201 -0.2536
  218PC     O21 9730  -0.201   5.575   2.230 -0.4954  0.4604 -0.2876
  218PC     C21 9731  -0.099   5.627   2.300  0.2160 -0.4309  0.1421
  218PC     O22 9732  -0.063   5.746   2.294 -0.0258 -0.1584 -0.4299
  219OL     C12 9733  -0.025   5.530   2.395  1.0297  0.1956  0.0159
  219OL     H2R 9734   0.070   5.514   2.343 -0.2591 -2.7789 -1.6984
  219OL     H2S 9735  -0.080   5.436   2.387 -1.5517  1.6401 -0.4405
  219OL     C13 9736  -0.030   5.563   2.547 -0.0063  0.5281  0.3163
  219OL     H3R 9737  -0.132   5.579   2.584 -0.7188 -0.7102 -0.9993
  219OL     H3S 9738   0.040   5.646   2.556  2.2250 -0.9939 -1.7029
  219OL     C14 9739   0.036   5.448   2.629  0.2325 -1.1950  0.5403
  219OL     H4R 9740   0.144   5.445   2.612 -0.0167  0.2049 -1.7191
  219OL     H4S 9741  -0.001   5.352   2.592  1.4940 -1.0187 -1.3079
  219OL     C15 9742  -0.008   5.456   2.774  0.4616  0.4218  0.1201
  219OL     H5R 9743  -0.117   5.466   2.769  0.4556 -0.1656 -2.3421
  219OL     H5S 9744   0.027   5.549   2.820 -1.4291  0.2969  1.9528
  219OL     C16 9745   0.040   5.350   2.867  0.1168  0.3668 -0.4700
  219OL     H6R 9746   0.022   5.398   2.963 -1.0261  3.5309 -2.1389
  219OL     H6S 9747   0.148   5.338   2.852  0.2909  1.9320 -0.5720
  219OL     C17 9748  -0.031   5.209   2.857  0.0734  0.4794  0.0315
  219OL     H7R 9749  -0.038   5.187   2.750 -0.9438  1.1002 -0.0494
  219OL     H7S 9750  -0.133   5.228   2.892  0.2156  2.1219 -0.3495
  219OL     C18 9751   0.038   5.092   2.928  0.1801  0.3874 -0.1669
  219OL     H8R 9752   0.012   5.105   3.033  1.8639 -0.8100  0.4367
  219OL     H8S 9753   0.147   5.094   2.921  0.2175 -1.8216 -0.8724
  219OL     C19 9754  -0.010   4.958   2.875  0.9098 -0.1836 -0.0565
  219OL     H9R 9755   0.040   4.930   2.782  1.3463  0.0221  0.1151
  219OL    C110 9756  -0.109   4.882   2.919  0.3507  0.0142 -0.0988
  219OL    H10R 9757  -0.134   4.791   2.867 -0.6856  0.5267 -0.5211
  219OL    C111 9758  -0.193   4.907   3.042  0.1848 -0.6841  0.0931
  219OL    H11R 9759  -0.301   4.907   3.034 -0.0647 -0.0132  2.6662
  219OL    H11S 9760  -0.170   5.004   3.086  1.2350  0.1669 -2.2031
  219OL    C112 9761  -0.166   4.806   3.156  0.4984 -1.2792  0.5585
  219OL    H12R 9762  -0.058   4.804   3.171  1.0707  2.4956 -1.7154
  219OL    H12S 9763  -0.198   4.704   3.132  0.0519 -0.5923 -2.0976
  219OL    C113 9764  -0.243   4.857   3.282  0.7158  0.1184 -0.4236
  219OL    H13R 9765  -0.351   4.861   3.265  0.5580 -0.9095  0.2399
  219OL    H13S 9766  -0.222   4.958   3.319  0.1060 -0.1564  0.7333
  219OL    C114 9767  -0.200   4.763   3.401 -0.1047  0.1100 -0.6767
  219OL    H14R 9768  -0.094   4.777   3.421  0.3545 -1.2130 -1.9093
  219OL    H14S 9769  -0.209   4.654   3.389  0.8962 -0.0460 -0.0327
  219OL    C115 9770  -0.285   4.797   3.528 -0.4888  0.2472 -0.7441
  219OL    H15R 9771  -0.390   4.772   3.517 -0.3237 -2.0698  1.8736
  219OL    H15S 9772  -0.278   4.900   3.565 -0.0431 -0.6164  1.7725
  219OL    C116 9773  -0.234   4.704   3.648  0.6640 -0.1382  0.4444
  219OL    H16R 9774  -0.252   4.598   3.629  0.0115  0.1531 -0.6894
  219OL    H16S 9775  -0.274   4.727   3.747 -1.1915 -2.8958  0.4357
  219OL    C117 9776  -0.082   4.723   3.675 -0.5006 -0.0714 -0.8960
  219OL    H17R 9777  -0.019   4.670   3.603 -1.0669 -1.9064 -0.1090
  219OL    H17S 9778  -0.049   4.670   3.764  1.3823  0.3099 -1.3278
  219OL    C118 9779  -0.034   4.871   3.700 -0.2767 -0.2851  0.0074
  219OL    H18R 9780  -0.074   4.901   3.797 -3.0835 -0.8758 -0.8749
  219OL    H18S 9781  -0.076   4.931   3.619  0.6737  1.9321  1.0818
  219OL    H18T 9782   0.074   4.886   3.697 -0.4414  1.3624  0.9969
  220PA    C116 9783   5.011  -0.455   3.901  0.5592 -0.3783  0.1370
  220PA    H16R 9784   4.973  -0.426   3.999 -3.2747 -0.4378 -1.1662
  220PA    H16S 9785   5.073  -0.380   3.851  0.3562 -0.4208 -0.1832
  220PA    H16T 9786   5.080  -0.539   3.911 -0.9055 -1.7496 -0.7228
  220PA    C115 9787   4.897  -0.508   3.810 -0.1889 -0.3373 -0.2738
  220PA    H15R 9788   4.841  -0.591   3.853 -2.0412  0.7164 -0.5400
  220PA    H15S 9789   4.830  -0.424   3.792 -1.3491 -1.4119 -1.0875
  220PA    C114 9790   4.926  -0.558   3.666  0.3180 -0.0084 -0.0604
  220PA    H14R 9791   4.991  -0.645   3.662 -0.5025 -0.7301  1.4236
  220PA    H14S 9792   4.827  -0.593   3.636 -0.3488  0.4317  1.5200
  220PA    C113 9793   4.980  -0.455   3.574 -0.0819  0.1617 -0.2364
  220PA    H13R 9794   4.937  -0.356   3.591  1.6524  0.7756  0.8306
  220PA    H13S 9795   5.083  -0.444   3.607 -0.1506 -1.0825  0.4299
  220PA    C112 9796   4.975  -0.506   3.435  0.1889 -0.1836  0.2177
  220PA    H12R 9797   5.009  -0.610   3.429 -2.5691 -1.1008 -1.2367
  220PA    H12S 9798   4.871  -0.514   3.401  0.8060  0.9230 -2.1740
  220PA    C111 9799   5.051  -0.414   3.339  0.1788 -0.7192  1.2451
  220PA    H11R 9800   5.011  -0.314   3.355 -0.8144 -1.3151  2.7489
  220PA    H11S 9801   5.155  -0.405   3.371  0.3829 -0.4023  0.5164
  220PA    C110 9802   5.030  -0.467   3.194 -0.5779  0.5290  0.3537
  220PA    H10R 9803   5.091  -0.557   3.186 -1.8152 -0.4028  0.8602
  220PA    H10S 9804   4.925  -0.496   3.179 -0.8871  0.9130  1.6362
  220PA     C19 9805   5.070  -0.382   3.079 -0.2289 -0.2949  0.1626
  220PA     H9R 9806   4.997  -0.301   3.080 -0.9729 -0.9328 -0.7078
  220PA     H9S 9807   5.168  -0.334   3.088 -0.6801  0.6399  0.2265
  220PA     C18 9808   5.066  -0.465   2.947 -0.0331 -0.4054 -0.2545
  220PA     H8R 9809   5.163  -0.514   2.949  1.0247  1.5939  1.3658
  220PA     H8S 9810   4.976  -0.527   2.950 -0.9857  0.9446  1.1708
  220PA     C17 9811   5.064  -0.365   2.829 -0.3461  0.5376  0.0767
  220PA     H7R 9812   4.985  -0.291   2.843 -0.9535  0.2032 -1.3950
  220PA     H7S 9813   5.149  -0.297   2.837  1.6455 -1.7343 -0.6459
  220PA     C16 9814   5.070  -0.420   2.683 -0.2043 -0.2893 -0.2710
  220PA     H6R 9815   5.158  -0.484   2.674 -0.3415 -0.2852 -2.0205
  220PA     H6S 9816   4.989  -0.486   2.653  0.7393 -0.3536 -2.9484
  220PA     C15 9817   5.094  -0.306   2.576 -0.0721 -0.1582 -0.0101
  220PA     H5R 9818   5.184  -0.248   2.594 -0.0250 -0.1387 -0.3015
  220PA     H5S 9819   5.113  -0.362   2.484  0.8652 -0.1283  0.1578
  220PA     C14 9820   4.973  -0.210   2.564 -0.2026  0.6084 -0.1032
  220PA     H4R 9821   4.886  -0.271   2.543  2.2783 -2.6378 -1.9478
  220PA     H4S 9822   4.947  -0.166   2.660  0.0707 -0.0301  0.2649
  220PA     C13 9823   4.996  -0.105   2.448  0.0339 -0.3256 -1.4287
  220PA     H3R 9824   4.923  -0.024   2.453  0.9532  0.4702 -0.5517
  220PA     H3S 9825   5.086  -0.048   2.473 -0.3066 -0.8957  1.5617
  220PA     C12 9826   4.997  -0.154   2.303 -0.4583 -0.1273 -0.3237
  220PA     H2R 9827   5.021  -0.069   2.239 -0.2302  0.5295  0.6137
  220PA     H2S 9828   5.073  -0.231   2.293 -0.2077  0.0310  0.2918
  221PC     C11 9829   4.868  -0.208   2.251  0.1136 -0.5423 -0.1951
  221PC     O12 9830   4.788  -0.258   2.324 -0.1552 -0.3028 -0.2009
  221PC     O11 9831   4.840  -0.181   2.122  0.1738 -0.6167 -0.0730
  221PC      C1 9832   4.715  -0.228   2.068  0.5136 -0.0556  0.6361
  221PC      HR 9833   4.737  -0.249   1.963 -0.5730  2.7035 -0.2472
  221PC      HS 9834   4.683  -0.322   2.113  1.6104 -1.1368 -0.7334
  221PC      C2 9835   4.606  -0.113   2.061  0.5013  0.6115  0.1499
  221PC      HX 9836   4.515  -0.154   2.017  0.1203  0.3516  1.1682
  221PC      C3 9837   4.656   0.007   1.976  0.2389 -0.3910 -0.2329
  221PC      HA 9838   4.591   0.090   2.004  1.6612  1.1973 -1.4125
  221PC      HB 9839   4.762   0.024   2.000 -0.0237  0.0464  0.6500
  221PC     O31 9840   4.641  -0.033   1.841 -0.7495  0.1521 -0.0866
  221PC     P31 9841   4.519   0.001   1.749  0.0208 -0.2523 -0.2233
  221PC     O32 9842   4.407  -0.103   1.794  0.1344  0.6475 -0.5805
  221PC     C31 9843   4.413  -0.241   1.765 -0.5828 -0.9869 -0.2076
  221PC     H1A 9844   4.517  -0.265   1.789 -0.3506  0.6050  0.5300
  221PC     H1B 9845   4.351  -0.292   1.839 -0.0431 -0.3031  0.7503
  221PC     C32 9846   4.373  -0.272   1.627  0.5669  0.0177  1.0754
  221PC     H2A 9847   4.424  -0.231   1.540 -0.6604  0.8533  0.7419
  221PC     H2B 9848   4.397  -0.379   1.627 -0.3552 -0.1988  1.1600
  221PC     N31 9849   4.226  -0.251   1.594  0.3678 -0.0615 -0.2070
  221PC     C33 9850   4.178  -0.337   1.486 -0.5184  0.7783 -0.0443
  221PC     H3A 9851   4.179  -0.437   1.530 -2.2936  0.9715  0.4937
  221PC     H3B 9852   4.082  -0.305   1.448 -1.0005  1.9099  1.9681
  221PC     H3C 9853   4.250  -0.339   1.404 -0.6761  0.3324 -0.1738
  221PC     C34 9854   4.128  -0.273   1.711 -0.1421  0.4575 -0.0316
  221PC     H4A 9855   4.026  -0.257   1.675  0.3955  0.3257 -1.7050
  221PC     H4B 9856   4.147  -0.375   1.744 -1.1062 -0.4993 -2.2067
  221PC     H4C 9857   4.149  -0.201   1.790  0.5489  0.2997 -0.0679
  221PC     C35 9858   4.206  -0.107   1.554 -0.2528  0.5701  0.3633
  221PC     H5A 9859   4.218  -0.043   1.641  1.3379  1.3287 -0.3803
  221PC     H5B 9860   4.106  -0.096   1.512  0.1933 -0.9201 -1.2323
  221PC     H5C 9861   4.262  -0.078   1.465 -1.4771  2.6092  0.2036
  221PC     O33 9862   4.480   0.141   1.789  0.0256 -0.0326  0.4248
  221PC     O34 9863   4.556  -0.031   1.612 -0.0815  0.1504  0.4224
  221PC     O21 9864   4.572  -0.066   2.189 -0.2650  0.2922  1.0236
  221PC     C21 9865   4.484  -0.136   2.257 -0.6274 -0.0756  0.3461
  221PC     O22 9866   4.422  -0.232   2.217  0.0609 -0.1821  0.3901
  222OL     C12 9867   4.482  -0.081   2.398 -0.4612  0.0153 -0.6706
  222OL     H2R 9868   4.417   0.006   2.408  0.4983  0.8513 -1.4650
  222OL     H2S 9869   4.586  -0.053   2.417  0.0212 -1.6763 -0.6340
  222OL     C13 9870   4.440  -0.194   2.491 -0.9849 -0.7003 -0.4172
  222OL     H3R 9871   4.500  -0.282   2.470 -1.5718 -0.9233 -1.2494
  222OL     H3S 9872   4.335  -0.208   2.464 -0.6950  0.6285 -2.4869
  222OL     C14 9873   4.448  -0.154   2.641  0.5570 -1.1879 -0.5120
  222OL     H4R 9874   4.553  -0.128   2.658  0.9225 -0.6319 -3.1822
  222OL     H4S 9875   4.404  -0.234   2.702 -2.2791  0.5444 -0.1079
  222OL     C15 9876   4.372  -0.025   2.682 -0.6342 -0.2060 -0.0346
  222OL     H5R 9877   4.272  -0.035   2.640 -1.4712  2.1537  1.1635
  222OL     H5S 9878   4.423   0.055   2.627  0.6954 -2.6057 -2.5554
  222OL     C16 9879   4.347   0.014   2.833  0.2164  0.2828 -0.6011
  222OL     H6R 9880   4.274   0.095   2.840  0.9059  0.8575  0.1522
  222OL     H6S 9881   4.439   0.055   2.875  0.3123  0.4187 -0.9415
  222OL     C17 9882   4.294  -0.106   2.921  0.0043  0.2359 -0.2489
  222OL     H7R 9883   4.370  -0.184   2.925 -1.0050 -0.7221  2.7335
  222OL     H7S 9884   4.206  -0.154   2.878  0.8703 -1.6156 -0.0598
  222OL     C18 9885   4.284  -0.064   3.071 -0.1290  0.0791  0.0930
  222OL     H8R 9886   4.380  -0.017   3.092 -0.2322 -0.5402  2.0987
  222OL     H8S 9887   4.276  -0.145   3.144  0.9531 -0.3112 -0.1990
  222OL     C19 9888   4.174   0.036   3.088  0.8372 -0.2190 -0.4499
  222OL     H9R 9889   4.177   0.135   3.043 -1.0691 -0.3584 -0.9820
  222OL    C110 9890   4.053   0.008   3.145  0.2676 -0.3693  0.1522
  222OL    H10R 9891   3.974   0.083   3.138  1.2317  0.5678 -1.6334
  222OL    C111 9892   4.012  -0.130   3.205 -1.1929 -0.7217  0.0027
  222OL    H11R 9893   4.088  -0.205   3.181 -0.7160 -0.2787  0.1114
  222OL    H11S 9894   3.922  -0.162   3.152 -2.2012  1.0547  0.5713
  222OL    C112 9895   3.982  -0.137   3.353  0.1051 -0.7636 -0.7192
  222OL    H12R 9896   4.068  -0.130   3.418 -2.0864  1.0178  2.2403
  222OL    H12S 9897   3.940  -0.235   3.378  1.3551 -2.1670 -3.5676
  222OL    C113 9898   3.886  -0.025   3.398 -0.4348 -0.4538 -0.1229
  222OL    H13R 9899   3.794  -0.019   3.340 -0.4368  1.5378 -0.0043
  222OL    H13S 9900   3.938   0.067   3.369  1.6284 -1.7976 -0.9484
  222OL    C114 9901   3.863  -0.027   3.549  0.2160  0.1226 -0.4653
  222OL    H14R 9902   3.834   0.070   3.592 -1.3003 -1.2964  1.9254
  222OL    H14S 9903   3.959  -0.034   3.601 -0.6614  0.2643  1.2398
  222OL    C115 9904   3.764  -0.136   3.599 -0.0076 -0.0995 -0.2425
  222OL    H15R 9905   3.795  -0.234   3.561 -0.0481 -0.0374 -0.4370
  222OL    H15S 9906   3.669  -0.104   3.557  1.3269  2.1918 -1.7878
  222OL    C116 9907   3.759  -0.152   3.757 -0.4464 -0.4881 -0.1850
  222OL    H16R 9908   3.861  -0.173   3.793 -0.3255 -0.1762 -0.3411
  222OL    H16S 9909   3.697  -0.237   3.787 -2.5059  1.4432  1.3513
  222OL    C117 9910   3.697  -0.024   3.836  0.3241  0.0933 -0.0761
  222OL    H17R 9911   3.753   0.069   3.832 -3.5422  2.6124 -2.9178
  222OL    H17S 9912   3.680  -0.056   3.939 -2.6831  0.0180 -0.5006
  222OL    C118 9913   3.547   0.001   3.791 -0.0106  0.2094  0.1957
  222OL    H18R 9914   3.544   0.052   3.694 -1.4081  1.0001  0.6294
  222OL    H18S 9915   3.490   0.065   3.859  1.8086  0.5262  1.4834
  222OL    H18T 9916   3.509  -0.101   3.788  0.4273  0.0122  0.9666
  223PA    C116 9917   3.629   0.292   4.168 -0.0307  0.1545  1.5106
  223PA    H16R 9918   3.642   0.255   4.269 -2.7457 -1.4491  1.4026
  223PA    H16S 9919   3.674   0.390   4.154 -0.1989  0.1075  0.4943
  223PA    H16T 9920   3.676   0.219   4.101 -2.7290 -0.9636  0.6881
  223PA    C115 9921   3.474   0.294   4.142 -0.5043  0.1384 -0.4105
  223PA    H15R 9922   3.426   0.362   4.213 -0.4099  0.8485 -1.0179
  223PA    H15S 9923   3.466   0.330   4.039  1.4559 -0.5132 -0.8239
  223PA    C114 9924   3.411   0.151   4.149 -0.2956 -0.8197  0.3876
  223PA    H14R 9925   3.445   0.086   4.068 -1.0105 -0.1056 -0.5021
  223PA    H14S 9926   3.446   0.108   4.242 -0.7882  1.9663  1.9906
  223PA    C113 9927   3.255   0.170   4.153 -0.4338  0.9043  0.0250
  223PA    H13R 9928   3.237   0.195   4.258 -0.3185  0.1720  0.2204
  223PA    H13S 9929   3.230   0.255   4.089 -1.1487  0.7028  0.0248
  223PA    C112 9930   3.170   0.052   4.105  0.1951  0.3423 -0.1886
  223PA    H12R 9931   3.188  -0.030   4.176 -1.0530  1.1203  1.0832
  223PA    H12S 9932   3.066   0.083   4.110 -0.1382 -0.6509 -0.8346
  223PA    C111 9933   3.188  -0.001   3.962 -0.4858  0.2245  0.1084
  223PA    H11R 9934   3.291  -0.032   3.947 -0.8590 -0.3133 -1.6327
  223PA    H11S 9935   3.131  -0.094   3.963  0.1332 -0.1556  0.8351
  223PA    C110 9936   3.147   0.093   3.847  0.1909  0.0065  0.2001
  223PA    H10R 9937   3.068   0.161   3.881  0.7424  0.3096  0.9073
  223PA    H10S 9938   3.228   0.163   3.826  1.7174 -1.3124  1.5038
  223PA     C19 9939   3.116   0.013   3.718 -0.2062  0.4444 -0.3200
  223PA     H9R 9940   3.019  -0.032   3.740  0.6747 -0.3068  2.4090
  223PA     H9S 9941   3.098   0.082   3.635  1.5026 -0.8076 -1.8131
  223PA     C18 9942   3.214  -0.089   3.665 -0.0672 -0.6090 -0.3271
  223PA     H8R 9943   3.312  -0.042   3.654 -0.2585 -0.1051  0.0782
  223PA     H8S 9944   3.223  -0.165   3.743  0.1889  1.2514  1.5354
  223PA     C17 9945   3.154  -0.148   3.538 -0.1426 -0.6050  0.0045
  223PA     H7R 9946   3.054  -0.188   3.556 -0.6386  1.0470  1.1807
  223PA     H7S 9947   3.153  -0.069   3.463 -1.9029  1.3448  1.9126
  223PA     C16 9948   3.250  -0.254   3.476  0.4337 -0.5901 -0.1926
  223PA     H6R 9949   3.354  -0.224   3.484  0.2968 -0.1403 -0.0556
  223PA     H6S 9950   3.233  -0.341   3.540 -0.4673  0.0521  0.4702
  223PA     C15 9951   3.218  -0.280   3.323 -0.1565  0.2414  0.6837
  223PA     H5R 9952   3.117  -0.322   3.325 -0.3733  0.7000  2.9918
  223PA     H5S 9953   3.222  -0.180   3.279  1.2721  0.2229  0.7155
  223PA     C14 9954   3.311  -0.374   3.248  0.2256  0.1051  0.1014
  223PA     H4R 9955   3.411  -0.342   3.275  0.0075  1.8575 -1.0030
  223PA     H4S 9956   3.300  -0.479   3.278  1.8531  0.2138  1.1969
  223PA     C13 9957   3.298  -0.366   3.096 -1.1035  0.2935 -0.1400
  223PA     H3R 9958   3.308  -0.263   3.060  4.6081  0.0518 -0.1938
  223PA     H3S 9959   3.381  -0.416   3.046 -0.2781  1.4936 -0.0327
  223PA     C12 9960   3.162  -0.421   3.044 -0.5182  0.2983 -0.2294
  223PA     H2R 9961   3.136  -0.523   3.073 -0.6060  0.0323 -1.2141
  223PA     H2S 9962   3.074  -0.374   3.089 -0.6801  0.5310 -0.7736
  224PC     C11 9963   3.152  -0.412   2.896  0.0670  0.0200  0.5882
  224PC     O12 9964   3.131  -0.305   2.842  0.1323 -0.3112 -0.1052
  224PC     O11 9965   3.164  -0.538   2.833  0.2070 -0.3516 -0.4004
  224PC      C1 9966   3.122  -0.546   2.696  0.3566 -0.0142 -0.1867
  224PC      HR 9967   3.094  -0.652   2.689  0.9797 -0.2612  0.8937
  224PC      HS 9968   3.039  -0.478   2.676  2.7471  3.5300  0.9266
  224PC      C2 9969   3.226  -0.494   2.592 -0.3450 -0.2078 -0.0323
  224PC      HX 9970   3.242  -0.386   2.602 -1.8857  0.0082  0.4781
  224PC      C3 9971   3.183  -0.509   2.441  0.7906 -0.3767 -0.8235
  224PC      HA 9972   3.130  -0.416   2.418  0.1182 -0.5268  0.1018
  224PC      HB 9973   3.268  -0.529   2.374  1.3570 -1.5716  0.2094
  224PC     O31 9974   3.083  -0.614   2.420  0.6963 -0.2133 -0.8494
  224PC     P31 9975   3.007  -0.646   2.277  0.1562  0.1882 -0.1245
  224PC     O32 9976   3.116  -0.745   2.218  0.1939 -0.7711  0.0275
  224PC     C31 9977   3.205  -0.697   2.124  0.2422 -0.0478  0.3678
  224PC     H1A 9978   3.142  -0.669   2.038 -1.1940 -1.7018  0.8299
  224PC     H1B 9979   3.264  -0.612   2.158  1.0238  1.2662 -3.6858
  224PC     C32 9980   3.312  -0.806   2.081  0.3040 -0.2810  0.5539
  224PC     H2A 9981   3.355  -0.846   2.173  0.9621  0.8018  0.7361
  224PC     H2B 9982   3.254  -0.887   2.037 -0.5246  0.5731  0.0518
  224PC     N31 9983   3.407  -0.757   1.983  0.3747  0.6821 -0.2667
  224PC     C33 9984   3.492  -0.881   1.959  0.7698 -0.5398 -1.1809
  224PC     H3A 9985   3.528  -0.921   2.054 -1.3105 -1.1631 -0.6085
  224PC     H3B 9986   3.422  -0.952   1.915 -0.8464 -0.5258  1.1822
  224PC     H3C 9987   3.577  -0.870   1.892 -0.0357 -1.0072 -2.3132
  224PC     C34 9988   3.349  -0.735   1.849 -0.0426 -0.3889 -0.1515
  224PC     H4A 9989   3.434  -0.711   1.785 -0.6849  0.4172 -0.7103
  224PC     H4B 9990   3.301  -0.830   1.823 -0.9720 -0.0175  0.1690
  224PC     H4C 9991   3.275  -0.655   1.850 -0.5291 -0.8381  0.0424
  224PC     C35 9992   3.494  -0.639   2.019  0.8481 -0.1656  0.3595
  224PC     H5A 9993   3.564  -0.674   2.094 -0.3940 -1.9255  0.7552
  224PC     H5B 9994   3.435  -0.554   2.054  2.3230  1.9204 -1.8551
  224PC     H5C 9995   3.542  -0.607   1.926  1.5490 -0.7444  0.5183
  224PC     O33 9996   2.888  -0.731   2.308 -0.0103 -0.3884 -0.2653
  224PC     O34 9997   3.003  -0.523   2.192 -0.0783  0.1413 -0.1044
  224PC     O21 9998   3.351  -0.567   2.612 -0.1721 -0.4104  0.1016
  224PC     C21 9999   3.470  -0.509   2.609 -0.5271  0.7552  0.1110
  224PC     O2210000   3.489  -0.391   2.585 -0.3185 -0.0125  0.0718
  225OL     C1210001   3.584  -0.608   2.636 -0.6142  0.6319  0.0272
  225OL     H2R10002   3.670  -0.594   2.570  0.6968 -5.4312 -0.0519
  225OL     H2S10003   3.549  -0.710   2.621 -0.8821  1.0197 -2.2751
  225OL     C1310004   3.648  -0.580   2.773 -0.5984 -0.1120  0.0138
  225OL     H3R10005   3.675  -0.475   2.783 -0.3217 -0.2679  1.0276
  225OL     H3S10006   3.738  -0.642   2.774  0.1142  0.8837 -0.5254
  225OL     C1410007   3.572  -0.627   2.901 -0.1507 -0.3996  0.0035
  225OL     H4R10008   3.536  -0.728   2.885 -2.1825  0.0550  1.3600
  225OL     H4S10009   3.486  -0.564   2.922 -0.5005 -1.3351  1.5097
  225OL     C1510010   3.656  -0.617   3.024  0.6036 -0.0108 -0.2590
  225OL     H5R10011   3.668  -0.511   3.050  1.5556 -0.3561  0.8157
  225OL     H5S10012   3.754  -0.663   3.006  1.0537  1.5894 -2.2998
  225OL     C1610013   3.584  -0.690   3.139  0.5417 -0.0007  0.1928
  225OL     H6R10014   3.580  -0.796   3.115  0.4919  0.0154  0.1274
  225OL     H6S10015   3.479  -0.660   3.139  0.7045  1.0623 -3.4763
  225OL     C1710016   3.645  -0.662   3.272  0.6947  0.3973  0.0738
  225OL     H7R10017   3.752  -0.684   3.277  0.3255 -1.2740  1.5906
  225OL     H7S10018   3.598  -0.716   3.354 -0.2337 -0.9992 -1.3372
  225OL     C1810019   3.631  -0.520   3.321  0.4274  0.0501 -0.2740
  225OL     H8R10020   3.524  -0.505   3.333  0.2547 -2.6151  3.3670
  225OL     H8S10021   3.678  -0.448   3.253  1.0225  0.6858  0.7740
  225OL     C1910022   3.717  -0.511   3.452  0.6640 -0.5024  0.6322
  225OL     H9R10023   3.820  -0.479   3.438 -0.6298  4.5876  0.8409
  225OL    C11010024   3.680  -0.519   3.580  0.4917  0.4898 -0.3764
  225OL    H10R10025   3.757  -0.506   3.655 -0.5538  0.4540  0.7292
  225OL    C11110026   3.542  -0.542   3.633 -0.2008  0.3503  0.4342
  225OL    H11R10027   3.466  -0.511   3.561  0.1975  0.4480  0.0480
  225OL    H11S10028   3.524  -0.492   3.728  0.0153 -1.3027  1.3838
  225OL    C11210029   3.518  -0.689   3.670  0.5452  0.2281  0.8543
  225OL    H12R10030   3.546  -0.741   3.578  1.1655  1.5366  0.2804
  225OL    H12S10031   3.412  -0.704   3.691 -0.2884  2.4013 -1.3432
  225OL    C11310032   3.601  -0.740   3.782 -0.4526  0.6746 -0.6847
  225OL    H13R10033   3.588  -0.687   3.877 -0.5928 -1.2478  0.4219
  225OL    H13S10034   3.705  -0.719   3.759  0.2224 -1.9122 -0.3309
  225OL    C11410035   3.578  -0.888   3.811  0.5828  0.4015 -0.1674
  225OL    H14R10036   3.671  -0.914   3.862 -0.0297 -1.7598 -0.0334
  225OL    H14S10037   3.563  -0.946   3.719  0.4682  0.1678 -0.0021
  225OL    C11510038   3.458  -0.917   3.906  0.2548 -0.2547 -0.6992
  225OL    H15R10039   3.364  -0.906   3.852 -1.2345 -2.0536  1.3988
  225OL    H15S10040   3.451  -0.842   3.984 -1.2357 -0.4329 -0.6505
  225OL    C11610041   3.451  -1.059   3.957 -0.4687  0.3935 -0.1110
  225OL    H16R10042   3.554  -1.076   3.989 -0.1698 -0.2764 -1.3632
  225OL    H16S10043   3.442  -1.134   3.878  0.3580  1.6489 -1.4680
  225OL    C11710044   3.360  -1.085   4.080  0.1264  0.2419 -0.0546
  225OL    H17R10045   3.358  -1.194   4.088  2.2507  0.0542 -1.4256
  225OL    H17S10046   3.257  -1.054   4.064 -0.2749 -0.6716  0.6478
  225OL    C11810047   3.405  -1.023   4.210  0.1220  0.4344  0.0512
  225OL    H18R10048   3.351  -0.929   4.224  0.2748  0.5235  0.0457
  225OL    H18S10049   3.512  -1.006   4.228  0.3787  0.3692 -1.2906
  225OL    H18T10050   3.357  -1.083   4.287 -2.7610 -0.1424 -2.0208
  226PA    C11610051   0.005  -0.439   3.493 -0.0284 -0.4177  0.2097
  226PA    H16R10052   0.104  -0.418   3.535  0.6071 -1.5440 -0.6761
  226PA    H16S10053   0.015  -0.536   3.444  1.2420 -0.1598 -0.0818
  226PA    H16T10054  -0.083  -0.440   3.558 -0.1342  0.0305  0.0714
  226PA    C11510055  -0.020  -0.337   3.381  0.0192  0.2973  0.0204
  226PA    H15R10056   0.062  -0.345   3.309 -0.7149 -0.3452 -0.7561
  226PA    H15S10057  -0.115  -0.355   3.332  0.5673 -1.3558 -0.5119
  226PA    C11410058  -0.011  -0.195   3.437 -0.2391 -0.7749 -0.4695
  226PA    H14R10059  -0.073  -0.186   3.527 -0.6073  1.5016 -0.8936
  226PA    H14S10060   0.091  -0.169   3.468 -0.8225  3.2356 -1.4094
  226PA    C11310061  -0.052  -0.081   3.340 -0.2329  0.1021 -0.2606
  226PA    H13R10062  -0.159  -0.087   3.318 -0.1459  0.4379 -0.7942
  226PA    H13S10063  -0.030   0.016   3.383 -1.1485  0.1000  0.2285
  226PA    C11210064   0.034  -0.087   3.216  0.0780 -0.5887  0.2349
  226PA    H12R10065   0.141  -0.101   3.233  0.7189  0.1705 -2.6527
  226PA    H12S10066   0.006  -0.178   3.161  1.9399 -0.2773 -1.3443
  226PA    C11110067   0.031   0.034   3.129  0.1371  1.0707 -0.3558
  226PA    H11R10068  -0.071   0.055   3.095  0.1323  0.5047 -0.7005
  226PA    H11S10069   0.057   0.114   3.198 -1.0250  0.7173  0.5158
  226PA    C11010070   0.131   0.024   3.007  1.2227 -0.1812  0.1572
  226PA    H10R10071   0.135   0.119   2.953 -0.0598 -0.2017 -0.0004
  226PA    H10S10072   0.234   0.023   3.044  0.2629  1.0976  3.2175
  226PA     C1910073   0.105  -0.088   2.905 -0.1618  0.4827 -0.4852
  226PA     H9R10074   0.142  -0.178   2.954 -3.5107  0.1160  1.7129
  226PA     H9S10075  -0.003  -0.103   2.904 -0.5462  2.7797  0.7820
  226PA     C1810076   0.170  -0.066   2.769 -0.8669 -0.4989  0.3366
  226PA     H8R10077   0.272  -0.027   2.770 -1.4470  1.2655 -1.5731
  226PA     H8S10078   0.188  -0.165   2.726  0.6575  0.4508 -1.3514
  226PA     C1710079   0.084   0.019   2.670 -0.7388  0.3055  0.7197
  226PA     H7R10080  -0.021  -0.006   2.691 -1.0425  0.1224 -0.9197
  226PA     H7S10081   0.108   0.125   2.673  0.6508  0.0622 -0.7849
  226PA     C1610082   0.110  -0.040   2.525 -0.2531 -0.0968  0.5224
  226PA     H6R10083   0.218  -0.026   2.519 -0.1293 -0.0519  2.2212
  226PA     H6S10084   0.089  -0.147   2.520 -2.8292  0.2266  2.4334
  226PA     C1510085   0.034   0.044   2.417 -0.2070  0.5060 -0.5631
  226PA     H5R10086  -0.065  -0.001   2.405  0.8882 -1.3842 -4.1125
  226PA     H5S10087   0.032   0.150   2.444 -1.0621  0.7957 -1.6867
  226PA     C1410088   0.101   0.037   2.287 -0.5427 -0.4160  0.2728
  226PA     H4R10089   0.210   0.041   2.295 -0.5933  0.2481  0.6442
  226PA     H4S10090   0.079  -0.065   2.253  1.0260 -0.5120 -0.6026
  226PA     C1310091   0.061   0.145   2.180  0.0522 -0.3561  0.4883
  226PA     H3R10092   0.079   0.243   2.225  0.6954 -0.1165 -0.2766
  226PA     H3S10093   0.126   0.127   2.095 -1.3432 -1.6506 -0.3670
  226PA     C1210094  -0.078   0.138   2.116  0.2122  0.3006 -0.2056
  226PA     H2R10095  -0.097   0.049   2.056 -1.1090  0.3166  0.1575
  226PA     H2S10096  -0.163   0.156   2.181 -2.6402  2.1995 -4.0635
  227PC     C1110097  -0.091   0.245   2.010 -0.1644 -0.3277  1.0396
  227PC     O1210098  -0.067   0.222   1.893  0.0481  0.9419  0.5462
  227PC     O1110099  -0.136   0.364   2.055 -0.9383  0.0409 -0.6491
  227PC      C110100  -0.175   0.471   1.963 -0.1984 -0.1485 -0.4265
  227PC      HR10101  -0.205   0.554   2.027 -1.6719 -0.5145 -0.6183
  227PC      HS10102  -0.088   0.494   1.901  1.3294 -2.5531  0.6997
  227PC      C210103  -0.305   0.441   1.886 -0.2631  0.9690  0.0765
  227PC      HX10104  -0.283   0.364   1.811  0.1664  0.9573  0.2111
  227PC      C310105  -0.341   0.564   1.804 -0.6517 -0.1798  0.4432
  227PC      HA10106  -0.359   0.645   1.875  1.4217 -0.2648  1.1522
  227PC      HB10107  -0.249   0.588   1.750 -0.4973 -0.5445  0.5407
  227PC     O3110108  -0.455   0.539   1.715  0.2274 -0.1243 -0.2663
  227PC     P3110109  -0.455   0.459   1.581 -0.3544 -0.0101  0.0900
  227PC     O3210110  -0.450   0.296   1.611 -0.0619 -0.1493 -0.4136
  227PC     C3110111  -0.565   0.224   1.646 -0.4349  0.0987 -0.4806
  227PC     H1A10112  -0.536   0.133   1.701  1.0837  1.7772  1.6870
  227PC     H1B10113  -0.634   0.283   1.707  0.9380  1.5936 -0.3416
  227PC     C3210114  -0.632   0.184   1.517  0.1226 -0.5707 -0.2901
  227PC     H2A10115  -0.725   0.131   1.536  0.1306 -1.7604 -3.1191
  227PC     H2B10116  -0.652   0.274   1.459 -2.1358  0.1530  1.4667
  227PC     N3110117  -0.561   0.097   1.411 -0.4794 -0.1787 -0.0861
  227PC     C3310118  -0.660   0.036   1.315 -1.0671 -0.0779 -0.2872
  227PC     H3A10119  -0.731  -0.029   1.364  1.1290 -1.2037  1.6060
  227PC     H3B10120  -0.705   0.125   1.271  1.8817  0.8223 -1.8333
  227PC     H3C10121  -0.596  -0.016   1.242  1.2195  1.0186  0.8152
  227PC     C3410122  -0.459   0.171   1.337 -0.5446 -0.3933 -0.7400
  227PC     H4A10123  -0.507   0.243   1.271  0.7583 -0.3199 -1.6193
  227PC     H4B10124  -0.390   0.209   1.412 -1.6830 -1.0137  0.6772
  227PC     H4C10125  -0.406   0.101   1.273 -1.8845 -1.5455 -0.6419
  227PC     C3510126  -0.490  -0.023   1.477 -0.7433 -0.1600 -0.5663
  227PC     H5A10127  -0.411   0.002   1.547 -0.8109 -1.9703  0.2025
  227PC     H5B10128  -0.436  -0.074   1.397  0.5906  1.9067 -1.0689
  227PC     H5C10129  -0.573  -0.072   1.528 -0.2355 -0.2380  0.1957
  227PC     O3310130  -0.577   0.505   1.511 -0.0386  0.2407 -0.1307
  227PC     O3410131  -0.325   0.496   1.520 -0.4584 -0.0444 -0.3430
  227PC     O2110132  -0.409   0.414   1.981 -0.5304 -0.4846  0.0545
  227PC     C2110133  -0.451   0.290   2.005  1.0049 -0.4218  0.0508
  227PC     O2210134  -0.418   0.197   1.934 -0.2207 -0.4053 -0.2727
  228OL     C1210135  -0.534   0.281   2.133 -0.1579 -0.2089 -0.0509
  228OL     H2R10136  -0.606   0.200   2.125 -2.5902  1.9290 -1.4061
  228OL     H2S10137  -0.580   0.377   2.158 -0.7549  0.4162 -3.1204
  228OL     C1310138  -0.434   0.237   2.240  0.3724  0.1206  0.4061
  228OL     H3R10139  -0.373   0.322   2.272  0.3706  0.6547 -0.9466
  228OL     H3S10140  -0.370   0.162   2.192 -1.6418 -1.2237 -0.2957
  228OL     C1410141  -0.507   0.190   2.370  0.1127 -0.2895  0.1590
  228OL     H4R10142  -0.568   0.103   2.344  1.5789 -1.6367  0.9864
  228OL     H4S10143  -0.561   0.276   2.407 -0.4150 -1.0495  1.1956
  228OL     C1510144  -0.389   0.158   2.469  0.0328 -0.3907  0.1334
  228OL     H5R10145  -0.334   0.242   2.513 -0.3701  0.5439 -1.1040
  228OL     H5S10146  -0.320   0.086   2.424  0.7763  0.5646 -0.2957
  228OL     C1610147  -0.455   0.084   2.589  0.3159 -0.4126 -0.4035
  228OL     H6R10148  -0.385   0.005   2.617  2.5868  0.8327 -2.2478
  228OL     H6S10149  -0.545   0.032   2.555 -0.6021  0.9226 -0.0851
  228OL     C1710150  -0.483   0.177   2.705 -0.2065 -0.6615 -1.2481
  228OL     H7R10151  -0.549   0.258   2.673  0.0635 -0.1878 -0.6503
  228OL     H7S10152  -0.392   0.218   2.751 -0.3359 -1.2715 -0.4208
  228OL     C1810153  -0.541   0.092   2.821  0.0080 -0.4999  0.1882
  228OL     H8R10154  -0.469   0.011   2.833  0.7006 -0.4304 -2.6978
  228OL     H8S10155  -0.636   0.044   2.799 -1.0542  1.3805  0.4428
  228OL     C1910156  -0.583   0.175   2.944 -0.5951  0.3246  0.2694
  228OL     H9R10157  -0.684   0.216   2.940 -1.1015 -0.9879 -0.5911
  228OL    C11010158  -0.511   0.202   3.051  0.0803  0.3480 -0.4678
  228OL    H10R10159  -0.552   0.265   3.129 -0.7136 -0.8794  0.1371
  228OL    C11110160  -0.381   0.147   3.083 -0.0688 -0.1517 -0.0484
  228OL    H11R10161  -0.343   0.093   2.996 -0.4394  0.8392 -0.8484
  228OL    H11S10162  -0.394   0.080   3.168 -0.8082 -1.4580 -1.1499
  228OL    C11210163  -0.282   0.257   3.134 -0.3336  0.6738  0.9569
  228OL    H12R10164  -0.197   0.197   3.168 -1.2366 -1.9817 -1.2217
  228OL    H12S10165  -0.327   0.311   3.218 -1.1947 -0.0258  0.9538
  228OL    C11310166  -0.248   0.363   3.025 -0.1031  0.3570 -0.1567
  228OL    H13R10167  -0.240   0.465   3.064  0.0803  0.3827 -0.2633
  228OL    H13S10168  -0.332   0.373   2.956 -0.4858 -0.3912  0.1962
  228OL    C11410169  -0.116   0.320   2.953  0.0592 -0.2860  0.3129
  228OL    H14R10170  -0.126   0.214   2.928 -1.7282 -0.0928  0.0358
  228OL    H14S10171  -0.029   0.334   3.016  0.7737  1.0161 -0.9134
  228OL    C11510172  -0.066   0.390   2.823  0.1591  0.3226 -0.1722
  228OL    H15R10173   0.023   0.340   2.784 -1.7170 -1.9476 -1.8110
  228OL    H15S10174  -0.026   0.490   2.844 -0.9408  0.9748 -1.0837
  228OL    C11610175  -0.169   0.405   2.712  0.1849 -0.3218 -0.0984
  228OL    H16R10176  -0.264   0.436   2.757  1.0987  0.1032  1.6204
  228OL    H16S10177  -0.189   0.310   2.661  0.1734 -0.4391  0.1207
  228OL    C11710178  -0.133   0.507   2.600  0.7099 -0.1646 -0.4849
  228OL    H17R10179  -0.121   0.606   2.645 -0.2361 -0.5422  0.6715
  228OL    H17S10180  -0.212   0.518   2.526  0.2190  3.1062  0.3355
  228OL    C11810181  -0.005   0.475   2.512 -0.2863 -0.1890  0.3485
  228OL    H18R10182   0.008   0.554   2.437 -2.9353 -0.6913 -0.7463
  228OL    H18S10183  -0.016   0.376   2.468 -0.7431  0.1342 -0.2782
  228OL    H18T10184   0.087   0.479   2.571 -0.2957 -1.4236  0.4744
  229PA    C11610185   3.343  -2.904   3.733  0.3701  0.4087  0.3481
  229PA    H16R10186   3.322  -2.806   3.777  0.2724  0.6880 -0.3047
  229PA    H16S10187   3.444  -2.940   3.755  0.8947  0.5203 -1.6980
  229PA    H16T10188   3.267  -2.973   3.771 -0.0789  1.5276  1.5465
  229PA    C11510189   3.341  -2.904   3.582  0.0141  0.4166  0.0661
  229PA    H15R10190   3.240  -2.876   3.550 -0.4122 -3.3023 -2.5407
  229PA    H15S10191   3.414  -2.840   3.534  0.4018  0.4736  0.7155
  229PA    C11410192   3.379  -3.048   3.528 -0.8783  0.3465  0.0433
  229PA    H14R10193   3.361  -3.136   3.590  1.6932 -1.3854 -1.4641
  229PA    H14S10194   3.313  -3.062   3.443 -0.3272  0.1415 -0.3613
  229PA    C11310195   3.518  -3.066   3.468  0.1671  0.1144  0.0910
  229PA    H13R10196   3.545  -2.973   3.416 -1.3630 -0.4430 -1.8434
  229PA    H13S10197   3.583  -3.087   3.553 -0.4184  0.0628  0.5352
  229PA    C11210198   3.538  -3.180   3.366  0.0131 -0.8135 -0.4296
  229PA    H12R10199   3.645  -3.186   3.343  0.0578  1.9383 -1.3425
  229PA    H12S10200   3.503  -3.268   3.419  1.7626 -0.3462  1.6650
  229PA    C11110201   3.451  -3.158   3.239 -0.5822 -0.2018 -0.7692
  229PA    H11R10202   3.344  -3.159   3.261 -0.7531 -0.6284 -1.5500
  229PA    H11S10203   3.477  -3.063   3.191  2.4769  0.0585  1.1390
  229PA    C11010204   3.486  -3.269   3.137  0.2558  0.1134 -0.5009
  229PA    H10R10205   3.593  -3.291   3.143 -0.0498 -1.2503  0.3340
  229PA    H10S10206   3.439  -3.365   3.159  0.0412  0.4473  0.5721
  229PA     C1910207   3.448  -3.234   2.994 -1.0271 -0.4711 -0.0542
  229PA     H9R10208   3.491  -3.316   2.936  1.4594  0.3080  0.5521
  229PA     H9S10209   3.342  -3.233   2.966 -1.0943  1.5292  0.1053
  229PA     C1810210   3.502  -3.102   2.949  0.2686  0.0244  0.5770
  229PA     H8R10211   3.465  -3.009   2.994  2.6695  1.3862 -0.0862
  229PA     H8S10212   3.609  -3.099   2.967  0.5911 -1.4259 -0.8329
  229PA     C1710213   3.494  -3.082   2.793  1.1151  0.5639  0.0661
  229PA     H7R10214   3.546  -2.988   2.772 -0.2307  1.0248 -1.4504
  229PA     H7S10215   3.541  -3.169   2.746  0.0005 -0.3858  0.6598
  229PA     C1610216   3.350  -3.082   2.747  0.7967 -0.0978 -0.5708
  229PA     H6R10217   3.306  -3.181   2.762  0.0996  0.5203  2.0080
  229PA     H6S10218   3.291  -3.008   2.802  1.4990  0.6210 -0.7704
  229PA     C1510219   3.347  -3.055   2.592  0.6294 -0.1185 -0.3612
  229PA     H5R10220   3.401  -2.966   2.559 -0.3539  1.1881  1.3904
  229PA     H5S10221   3.394  -3.142   2.545  2.3476  0.4688  0.1965
  229PA     C1410222   3.201  -3.059   2.539 -0.5513 -0.8469 -0.3221
  229PA     H4R10223   3.148  -3.141   2.587 -1.2083 -0.4348 -0.3455
  229PA     H4S10224   3.162  -2.965   2.579 -1.7255 -1.5028  0.1079
  229PA     C1310225   3.188  -3.054   2.388  1.3292 -0.4525  0.6475
  229PA     H3R10226   3.277  -3.002   2.354  0.4434  1.6415  1.3736
  229PA     H3S10227   3.172  -3.153   2.345  0.6542  0.3240 -1.0084
  229PA     C1210228   3.062  -2.979   2.352  0.3263 -0.0853 -0.3631
  229PA     H2R10229   2.967  -3.010   2.396 -0.6874  0.6993 -1.9064
  229PA     H2S10230   3.073  -2.875   2.384 -1.6024  1.2298 -3.4498
  230PC     C1110231   3.041  -2.955   2.203 -0.0039 -0.0944 -0.3384
  230PC     O1210232   3.082  -3.022   2.112 -0.2667 -0.1472  0.5582
  230PC     O1110233   2.960  -2.852   2.183 -0.2051 -0.6459  0.6627
  230PC      C110234   2.915  -2.818   2.048  0.3080  0.2654 -0.0384
  230PC      HR10235   2.854  -2.727   2.053 -2.7543 -1.7246  1.3009
  230PC      HS10236   2.999  -2.806   1.979  0.7037 -0.2061  0.3453
  230PC      C210237   2.818  -2.930   1.993 -0.6235  0.0987 -0.3655
  230PC      HX10238   2.855  -3.027   2.025  0.8566  1.4626  2.3260
  230PC      C310239   2.810  -2.933   1.838 -0.6108 -0.0274 -0.3175
  230PC      HA10240   2.910  -2.955   1.799 -0.4029  0.9185 -0.3466
  230PC      HB10241   2.741  -3.012   1.810  0.4779 -1.1120 -0.0474
  230PC     O3110242   2.767  -2.810   1.778 -0.2364 -0.5253  0.0614
  230PC     P3110243   2.712  -2.799   1.633  0.3769  0.3448 -0.0792
  230PC     O3210244   2.553  -2.835   1.653  0.9231  0.1911  0.6872
  230PC     C3110245   2.462  -2.760   1.741  0.2779 -0.5030 -0.1074
  230PC     H1A10246   2.520  -2.682   1.791  0.6437 -0.9660  0.1906
  230PC     H1B10247   2.382  -2.704   1.691 -0.9284 -1.7884  0.2865
  230PC     C3210248   2.414  -2.856   1.851 -0.5110 -0.4220 -0.0095
  230PC     H2A10249   2.493  -2.881   1.922 -0.1189 -1.1776 -0.7017
  230PC     H2B10250   2.329  -2.804   1.896 -0.2844  2.4802 -2.6334
  230PC     N3110251   2.346  -2.981   1.809  0.2797  0.0317  0.5736
  230PC     C3310252   2.232  -2.956   1.715  0.3628  0.3724 -0.4106
  230PC     H3A10253   2.202  -3.052   1.673  0.2791  0.7774 -1.3165
  230PC     H3B10254   2.160  -2.908   1.781  1.9820  2.1223  0.1834
  230PC     H3C10255   2.257  -2.886   1.634  2.7854  1.8818  1.4865
  230PC     C3410256   2.433  -3.080   1.745  0.0007 -0.0658  0.0077
  230PC     H4A10257   2.513  -3.112   1.812  0.6380  3.4165  1.0904
  230PC     H4B10258   2.380  -3.171   1.717 -1.0334  0.3343  0.6084
  230PC     H4C10259   2.465  -3.035   1.651  1.0098  0.1177  0.4205
  230PC     C3510260   2.276  -3.049   1.919  0.1936  0.2628  0.0097
  230PC     H5A10261   2.345  -3.075   1.999  1.8719 -0.0627 -1.4773
  230PC     H5B10262   2.235  -3.143   1.881  1.3781 -0.5186  0.6149
  230PC     H5C10263   2.189  -2.998   1.961 -0.7897 -1.7874  0.6124
  230PC     O3310264   2.721  -2.660   1.589 -0.4597 -0.4948 -0.3674
  230PC     O3410265   2.779  -2.907   1.550  0.0203  0.6993 -0.0371
  230PC     O2110266   2.686  -2.896   2.050 -0.2041  0.1214  0.2831
  230PC     C2110267   2.660  -2.948   2.166  0.1636  0.2658 -0.3847
  230PC     O2210268   2.713  -3.051   2.206  0.1937  0.2810 -0.0290
  231OL     C1210269   2.557  -2.863   2.239  0.0564 -0.3172 -0.5481
  231OL     H2R10270   2.480  -2.855   2.162  0.3077  2.1092 -0.6440
  231OL     H2S10271   2.600  -2.765   2.263  0.6381 -0.5667 -0.5480
  231OL     C1310272   2.501  -2.925   2.370 -0.1268  0.3585  0.3898
  231OL     H3R10273   2.586  -2.957   2.430 -0.9111 -0.4591  1.0890
  231OL     H3S10274   2.452  -3.021   2.353  0.8277 -0.3211  1.3903
  231OL     C1410275   2.412  -2.839   2.457  0.1344 -0.0178 -0.7554
  231OL     H4R10276   2.315  -2.816   2.412  0.0740  1.0333 -0.1294
  231OL     H4S10277   2.465  -2.748   2.489 -0.7820  0.8496 -1.6308
  231OL     C1510278   2.373  -2.924   2.574  0.3439 -0.3992 -0.0600
  231OL     H5R10279   2.333  -3.017   2.533 -0.2745 -0.9736  1.7342
  231OL     H5S10280   2.280  -2.887   2.618 -0.4610 -1.8866 -0.4363
  231OL     C1610281   2.471  -2.963   2.686  0.2941 -0.0738  0.3949
  231OL     H6R10282   2.574  -2.975   2.653 -0.1265 -1.5542 -0.4135
  231OL     H6S10283   2.440  -3.050   2.743 -0.7536  1.3384  2.1079
  231OL     C1710284   2.478  -2.846   2.788  0.2941 -0.1143 -0.5576
  231OL     H7R10285   2.494  -2.745   2.747  0.6148  0.8879  1.8748
  231OL     H7S10286   2.570  -2.855   2.846  0.9305 -2.3338 -1.7971
  231OL     C1810287   2.364  -2.846   2.888 -0.7825  0.6191  0.8829
  231OL     H8R10288   2.358  -2.951   2.920  1.2220  0.2707  0.2484
  231OL     H8S10289   2.272  -2.830   2.832  0.0753 -0.4181 -0.9291
  231OL     C1910290   2.379  -2.749   2.998 -0.0647  0.8469  0.1180
  231OL     H9R10291   2.441  -2.662   2.980  0.2291  0.4973 -0.6164
  231OL    C11010292   2.318  -2.760   3.117 -0.2412 -0.1245  0.2531
  231OL    H10R10293   2.329  -2.684   3.194 -1.2018 -1.6036  1.9120
  231OL    C11110294   2.229  -2.867   3.171  0.2447 -0.5083 -1.6406
  231OL    H11R10295   2.276  -2.896   3.265 -1.7659 -0.4321 -0.5594
  231OL    H11S10296   2.221  -2.950   3.101  2.0653  0.2462 -2.8260
  231OL    C11210297   2.089  -2.824   3.203  0.4700 -0.0666  0.6310
  231OL    H12R10298   2.042  -2.794   3.109  2.5584  0.4397 -0.3033
  231OL    H12S10299   2.087  -2.735   3.266 -0.4077  0.6608 -0.3923
  231OL    C11310300   2.001  -2.941   3.264 -0.6234 -0.5109 -0.1464
  231OL    H13R10301   2.049  -2.980   3.355 -1.1861  1.4236  1.0420
  231OL    H13S10302   1.993  -3.021   3.190  0.7786 -0.3134 -0.5425
  231OL    C11410303   1.862  -2.898   3.312  0.1031  0.2705 -0.3928
  231OL    H14R10304   1.843  -2.979   3.383  0.6070 -0.4059 -1.0095
  231OL    H14S10305   1.777  -2.911   3.245  0.1240 -0.3033 -0.3131
  231OL    C11510306   1.858  -2.760   3.380  0.5521 -0.4060 -0.5275
  231OL    H15R10307   1.889  -2.675   3.319 -1.1845  0.8419  0.2502
  231OL    H15S10308   1.932  -2.758   3.461  0.5735 -0.0073 -0.5536
  231OL    C11610309   1.710  -2.738   3.425 -0.5233 -0.0093 -0.1322
  231OL    H16R10310   1.669  -2.824   3.477 -1.7338  1.9885  2.4318
  231OL    H16S10311   1.661  -2.736   3.328  1.9063 -1.9600 -1.5270
  231OL    C11710312   1.669  -2.600   3.487 -0.2848  0.2938  0.0524
  231OL    H17R10313   1.569  -2.612   3.527  0.0899 -3.0118  0.2353
  231OL    H17S10314   1.672  -2.523   3.409 -1.2366  1.1274  0.8170
  231OL    C11810315   1.758  -2.563   3.606  0.3566 -0.2519  0.3024
  231OL    H18R10316   1.846  -2.514   3.562  0.0161 -0.2488 -0.3940
  231OL    H18S10317   1.787  -2.658   3.651 -2.8467 -1.9871 -0.9765
  231OL    H18T10318   1.715  -2.500   3.683  1.7924  1.3031 -0.0855
  232PA    C11610319   1.215   3.218   3.807 -0.3766 -0.1073  0.0709
  232PA    H16R10320   1.283   3.164   3.873 -0.6248 -0.9647 -0.3559
  232PA    H16S10321   1.115   3.231   3.849 -2.0553 -3.0570 -2.5212
  232PA    H16T10322   1.261   3.313   3.778  0.2913 -0.0187  1.3618
  232PA    C11510323   1.175   3.130   3.683 -0.4233 -0.0130  0.2911
  232PA    H15R10324   1.112   3.174   3.605  0.5977  0.3284 -0.3568
  232PA    H15S10325   1.271   3.102   3.639 -1.4206 -0.5053 -1.7024
  232PA    C11410326   1.096   3.006   3.737  0.0055  0.3648 -0.4138
  232PA    H14R10327   1.152   2.959   3.818  1.4496  0.7317 -1.1612
  232PA    H14S10328   1.010   3.041   3.795  1.8336  0.9552  2.1089
  232PA    C11310329   1.039   2.906   3.630 -0.0188 -0.1929 -0.1110
  232PA    H13R10330   0.981   2.826   3.674  0.6324 -0.9373 -0.5746
  232PA    H13S10331   0.978   2.964   3.560 -1.3289  0.9865  1.9107
  232PA    C11210332   1.156   2.835   3.561  0.2216  0.2706 -0.1907
  232PA    H12R10333   1.191   2.888   3.472  1.0842 -0.9783 -0.6312
  232PA    H12S10334   1.239   2.836   3.633 -0.8453  0.2039  1.0870
  232PA    C11110335   1.133   2.692   3.512  0.4082 -0.3561  0.3305
  232PA    H11R10336   1.221   2.651   3.463 -0.0458 -1.2416  0.2462
  232PA    H11S10337   1.121   2.627   3.599 -0.2951 -2.1628 -1.0529
  232PA    C11010338   1.006   2.688   3.416  0.2199 -0.1808  0.3798
  232PA    H10R10339   0.984   2.583   3.399  1.3422 -0.5858  1.3367
  232PA    H10S10340   0.930   2.736   3.479  3.1177  2.3716  2.2568
  232PA     C1910341   1.026   2.762   3.281  0.4908  0.1664 -0.0498
  232PA     H9R10342   0.939   2.747   3.216  1.2259 -0.5223 -0.8987
  232PA     H9S10343   1.036   2.871   3.285  1.0721  0.1400 -0.5653
  232PA     C1810344   1.145   2.693   3.207  0.1625 -0.6536 -0.0286
  232PA     H8R10345   1.240   2.727   3.249 -0.4588 -1.4375  2.1419
  232PA     H8S10346   1.140   2.586   3.225  2.5586 -1.1430 -1.8201
  232PA     C1710347   1.131   2.701   3.053 -0.4218  0.6661 -0.2288
  232PA     H7R10348   1.203   2.629   3.013 -0.2426  0.8930 -0.3166
  232PA     H7S10349   1.031   2.662   3.030 -0.5054 -0.5750  1.9812
  232PA     C1610350   1.146   2.839   2.988  0.4307  0.0827 -0.9827
  232PA     H6R10351   1.058   2.899   3.014 -0.3572 -0.2363 -2.7781
  232PA     H6S10352   1.245   2.877   3.016  1.4835 -1.4796 -2.3681
  232PA     C1510353   1.156   2.835   2.836  0.1149 -0.3619  0.2796
  232PA     H5R10354   1.211   2.920   2.795  0.1575 -1.2203 -1.5450
  232PA     H5S10355   1.214   2.745   2.815 -0.9083 -0.6019 -1.6991
  232PA     C1410356   1.014   2.813   2.771  0.0001  0.2939  0.4209
  232PA     H4R10357   0.993   2.706   2.771  0.9877  0.0898 -0.3613
  232PA     H4S10358   0.937   2.868   2.826 -0.8217  0.3458 -0.7642
  232PA     C1310359   1.014   2.854   2.622  0.2574  0.4728 -0.4972
  232PA     H3R10360   1.113   2.834   2.581  1.0217  2.9115  0.0686
  232PA     H3S10361   0.933   2.805   2.567 -0.6124 -0.8272  1.7656
  232PA     C1210362   0.999   3.010   2.618 -0.1734 -0.3295 -0.1814
  232PA     H2R10363   0.918   3.032   2.687  0.3380  0.9999  0.0127
  232PA     H2S10364   1.080   3.060   2.672 -0.6704 -1.8520  2.1143
  233PC     C1110365   0.989   3.067   2.477 -0.1378  0.4137 -0.1868
  233PC     O1210366   0.893   3.136   2.440  0.2597 -0.1132 -0.6129
  233PC     O1110367   1.091   3.031   2.396  0.4319 -0.1000  0.3430
  233PC      C110368   1.086   3.076   2.263 -0.8138  0.3885  0.6174
  233PC      HR10369   1.119   2.987   2.209  0.2196  1.5100 -0.6577
  233PC      HS10370   0.987   3.111   2.234 -0.6414  1.0081  0.7475
  233PC      C210371   1.197   3.179   2.231 -0.0339 -0.1936 -0.2313
  233PC      HX10372   1.168   3.269   2.285  0.2486 -0.0486 -0.3208
  233PC      C310373   1.188   3.203   2.081 -0.2677  0.5121 -0.1711
  233PC      HA10374   1.088   3.222   2.042 -0.5232  2.1559  1.1982
  233PC      HB10375   1.263   3.281   2.064 -0.2192  0.7674  1.0728
  233PC     O3110376   1.232   3.076   2.008 -0.3602  0.0964 -0.2243
  233PC     P3110377   1.298   3.072   1.862 -0.2839  0.0624 -0.0889
  233PC     O3210378   1.440   3.141   1.884 -0.1585 -0.8337 -0.1753
  233PC     C3110379   1.543   3.058   1.937 -0.1141 -0.3064  0.0263
  233PC     H1A10380   1.523   3.033   2.042 -0.9411  2.2457  0.5405
  233PC     H1B10381   1.552   2.967   1.876 -2.0468 -0.7571  0.3316
  233PC     C3210382   1.679   3.135   1.933 -0.1537 -0.3315 -0.0901
  233PC     H2A10383   1.680   3.220   2.001  1.4102 -0.9893  0.7567
  233PC     H2B10384   1.757   3.066   1.966 -1.9018 -2.9177 -0.9540
  233PC     N3110385   1.739   3.175   1.798  0.0759 -0.5924 -0.2666
  233PC     C3310386   1.674   3.294   1.737  0.1240 -0.0141 -0.1260
  233PC     H3A10387   1.681   3.385   1.796 -0.4696  0.3222 -0.5693
  233PC     H3B10388   1.709   3.314   1.635  2.6509  0.8122  0.8387
  233PC     H3C10389   1.568   3.271   1.726 -0.3175  1.8613 -0.0869
  233PC     C3410390   1.883   3.204   1.818  0.3631 -0.0429  0.2701
  233PC     H4A10391   1.899   3.271   1.902  1.3913 -0.1772  0.1973
  233PC     H4B10392   1.929   3.106   1.829 -0.3897 -0.3373  0.9042
  233PC     H4C10393   1.913   3.257   1.728  1.1178  1.7290  1.5221
  233PC     C3510394   1.729   3.071   1.692  0.5003 -0.1197  0.1247
  233PC     H5A10395   1.630   3.036   1.665  0.5308  1.6075 -2.5617
  233PC     H5B10396   1.789   2.986   1.724  0.3921 -1.1933 -2.3369
  233PC     H5C10397   1.780   3.107   1.602 -0.5721 -0.8900 -0.8060
  233PC     O3310398   1.320   2.937   1.812 -0.0537  0.4726 -0.0418
  233PC     O3410399   1.217   3.164   1.781 -0.3531 -0.2627 -0.1805
  233PC     O2110400   1.326   3.123   2.255 -0.1706 -0.3721 -0.4631
  233PC     C2110401   1.376   3.130   2.378  0.1816 -1.0223  0.0094
  233PC     O2210402   1.337   3.192   2.476  0.1632 -0.0071  0.1854
  234OL     C1210403   1.509   3.048   2.383  0.2944  0.0800  0.1525
  234OL     H2R10404   1.593   3.118   2.370  1.0510 -0.5993  1.2586
  234OL     H2S10405   1.517   2.985   2.294 -1.2366 -0.2131  0.1953
  234OL     C1310406   1.508   2.952   2.499 -0.1587  0.2711 -0.0012
  234OL     H3R10407   1.404   2.924   2.518 -0.0792  0.7680  1.2675
  234OL     H3S10408   1.543   2.991   2.595  1.7499 -2.6019  0.6081
  234OL     C1410409   1.579   2.814   2.480  0.9571 -0.2641  0.0311
  234OL     H4R10410   1.686   2.831   2.490  1.3177 -2.2828 -0.0436
  234OL     H4S10411   1.556   2.771   2.382 -0.4137 -1.4011  0.8119
  234OL     C1510412   1.540   2.710   2.587  0.0609  0.1312 -0.1024
  234OL     H5R10413   1.598   2.619   2.573 -0.8238 -0.4462 -0.1058
  234OL     H5S10414   1.439   2.672   2.569  0.1976  0.1233 -0.9007
  234OL     C1610415   1.556   2.757   2.734 -1.3918  0.1544  0.4815
  234OL     H6R10416   1.488   2.839   2.760  0.3797  1.3471  1.5749
  234OL     H6S10417   1.649   2.815   2.741 -2.4195  1.8242  0.9916
  234OL     C1710418   1.565   2.647   2.850  0.1662  0.3128  0.3916
  234OL     H7R10419   1.641   2.574   2.819 -1.9921 -1.9821  0.2097
  234OL     H7S10420   1.470   2.595   2.861  1.7581 -2.5881  1.3988
  234OL     C1810421   1.606   2.708   2.986  0.2069  0.0217 -0.1091
  234OL     H8R10422   1.582   2.814   2.987  1.9475  0.4532 -0.9235
  234OL     H8S10423   1.714   2.705   3.002  0.2408  1.7225  0.1375
  234OL     C1910424   1.531   2.627   3.099 -0.2639  0.3306 -0.3418
  234OL     H9R10425   1.501   2.527   3.068  2.3446 -0.5332 -0.3677
  234OL    C11010426   1.512   2.670   3.228 -0.7734  0.3653  0.5124
  234OL    H10R10427   1.459   2.614   3.305 -0.7785  1.0415  1.0022
  234OL    C11110428   1.557   2.806   3.277  0.1215  0.4184 -0.6121
  234OL    H11R10429   1.468   2.869   3.288  0.0135  0.2935 -0.7599
  234OL    H11S10430   1.621   2.855   3.204  1.1579  0.2232  0.1526
  234OL    C11210431   1.633   2.795   3.413  0.3099  0.0785  0.4738
  234OL    H12R10432   1.724   2.741   3.385  1.7880  2.3175  0.6195
  234OL    H12S10433   1.575   2.739   3.486 -1.1303  0.4187 -0.3640
  234OL    C11310434   1.664   2.929   3.474  0.6261 -0.0093  0.2218
  234OL    H13R10435   1.744   2.980   3.419  2.1480 -2.8533 -0.4257
  234OL    H13S10436   1.708   2.905   3.571 -1.1876  0.5137  1.2088
  234OL    C11410437   1.540   3.016   3.507 -0.4185 -0.1564 -0.2900
  234OL    H14R10438   1.454   2.963   3.549 -0.1755 -0.0503  0.3626
  234OL    H14S10439   1.503   3.047   3.410  0.8099 -1.6501 -1.2854
  234OL    C11510440   1.567   3.147   3.594  0.1058  0.6241 -0.1299
  234OL    H15R10441   1.486   3.221   3.591  1.5778  2.3040 -2.2259
  234OL    H15S10442   1.655   3.198   3.553 -0.3087  1.9756  0.6151
  234OL    C11610443   1.601   3.124   3.739  0.6321  0.1754 -0.8668
  234OL    H16R10444   1.687   3.057   3.750  1.0644  0.9891  1.4124
  234OL    H16S10445   1.510   3.081   3.783  0.0901 -1.5642 -3.4746
  234OL    C11710446   1.635   3.256   3.814 -0.2201 -0.0307 -0.3555
  234OL    H17R10447   1.566   3.331   3.773  0.3483  1.1696  0.8070
  234OL    H17S10448   1.737   3.286   3.790  0.0335 -0.5443  0.0856
  234OL    C11810449   1.598   3.267   3.964 -0.1396 -0.2951  0.5353
  234OL    H18R10450   1.661   3.207   4.031  2.9454  1.7930 -0.2973
  234OL    H18S10451   1.496   3.230   3.976 -0.7339  1.7384  2.4018
  234OL    H18T10452   1.591   3.373   3.989 -0.7409 -0.3560  0.6513
  235PA    C11610453   1.458   5.139   3.604 -0.1618  0.5195  0.3055
  235PA    H16R10454   1.393   5.073   3.661 -0.9797  1.7738  0.8714
  235PA    H16S10455   1.499   5.209   3.677 -1.7018  2.4492 -0.5875
  235PA    H16T10456   1.540   5.088   3.553 -0.3974  0.7233 -0.2784
  235PA    C11510457   1.379   5.225   3.496  1.0963  0.6244 -0.2478
  235PA    H15R10458   1.301   5.281   3.549  1.7774  0.8885  0.4992
  235PA    H15S10459   1.454   5.289   3.450  1.2440 -1.9966 -3.9933
  235PA    C11410460   1.305   5.158   3.382 -0.1153 -0.0943 -0.1194
  235PA    H14R10461   1.211   5.122   3.423 -0.9968  1.4709 -0.6853
  235PA    H14S10462   1.279   5.233   3.307 -0.1934 -0.7543 -0.7688
  235PA    C11310463   1.378   5.032   3.320  0.6375 -0.5525 -0.2986
  235PA    H13R10464   1.479   5.063   3.291 -0.1857  1.5019 -1.2338
  235PA    H13S10465   1.387   4.955   3.396  0.7790  0.8953  1.2152
  235PA    C11210466   1.304   4.976   3.197  0.5352 -0.6606  0.4921
  235PA    H12R10467   1.212   4.922   3.218 -0.4268  0.8138  0.2189
  235PA    H12S10468   1.270   5.064   3.143 -1.1909 -0.1284  2.3170
  235PA    C11110469   1.389   4.896   3.102  0.0422  0.8295  1.0019
  235PA    H11R10470   1.333   4.839   3.027  3.7417  0.1488 -1.5189
  235PA    H11S10471   1.451   4.959   3.037 -0.9060  0.1031 -0.6800
  235PA    C11010472   1.472   4.793   3.171 -0.6770 -0.1687  0.2101
  235PA    H10R10473   1.556   4.849   3.213 -1.1405 -0.1597  1.1559
  235PA    H10S10474   1.423   4.742   3.254  0.4202  0.9066  1.5743
  235PA     C1910475   1.530   4.682   3.085  1.3520  0.0795  1.0959
  235PA     H9R10476   1.587   4.615   3.150  0.3035 -1.2534  0.6895
  235PA     H9S10477   1.447   4.621   3.047  1.0638  0.8699  0.4314
  235PA     C1810478   1.618   4.738   2.971  0.0645  0.3081  0.5820
  235PA     H8R10479   1.569   4.816   2.912 -2.4437  0.5786  2.8246
  235PA     H8S10480   1.703   4.784   3.022  0.6587 -1.6066  1.3968
  235PA     C1710481   1.659   4.627   2.863  0.6699  0.2709 -0.4136
  235PA     H7R10482   1.717   4.547   2.909  0.9838 -0.4932 -2.0607
  235PA     H7S10483   1.565   4.582   2.830 -0.0598  2.2888 -1.2446
  235PA     C1610484   1.755   4.688   2.760 -0.0160  0.1801  0.0296
  235PA     H6R10485   1.704   4.769   2.707  0.9684 -0.6610 -2.3699
  235PA     H6S10486   1.852   4.720   2.797  1.0978 -0.6382 -2.0127
  235PA     C1510487   1.792   4.595   2.645  0.0899 -0.2291 -0.4333
  235PA     H5R10488   1.826   4.505   2.697  1.1102  0.1539 -0.4183
  235PA     H5S10489   1.698   4.572   2.595 -0.3375  0.1892  0.1642
  235PA     C1410490   1.896   4.657   2.551  0.6870  0.2063 -0.5212
  235PA     H4R10491   1.967   4.708   2.617 -1.2353  3.7139 -0.8915
  235PA     H4S10492   1.953   4.578   2.502  3.5093  1.2916  0.8108
  235PA     C1310493   1.854   4.772   2.454 -0.3500  0.2322 -0.2415
  235PA     H3R10494   1.761   4.739   2.409 -0.6839 -0.1832  0.7265
  235PA     H3S10495   1.820   4.862   2.507 -2.3566 -0.4674 -0.2635
  235PA     C1210496   1.953   4.793   2.345 -0.5521  0.1502  0.3457
  235PA     H2R10497   2.046   4.828   2.388 -1.3255  0.0348  2.1908
  235PA     H2S10498   1.981   4.697   2.301 -1.4822  0.6678 -1.4970
  236PC     C1110499   1.922   4.897   2.237 -0.0071  0.4958  0.4058
  236PC     O1210500   1.901   4.863   2.117  0.2293  0.1694  0.1971
  236PC     O1110501   1.906   5.026   2.282  0.2084 -0.0520  0.6811
  236PC      C110502   1.873   5.136   2.189  0.4967  0.7645 -0.4051
  236PC      HR10503   1.895   5.229   2.241  2.0209  1.0236 -1.4414
  236PC      HS10504   1.937   5.135   2.101 -0.1000  0.2930 -0.8457
  236PC      C210505   1.725   5.118   2.149 -0.7183 -0.1294  0.3904
  236PC      HX10506   1.708   5.018   2.108 -0.8031  0.3587 -0.8025
  236PC      C310507   1.696   5.223   2.043  0.2497  0.0816  0.1203
  236PC      HA10508   1.595   5.265   2.040  1.2471  2.6246 -1.0744
  236PC      HB10509   1.753   5.315   2.056  0.0047  0.4522 -1.2701
  236PC     O3110510   1.716   5.163   1.909  0.0168 -0.0761 -0.3790
  236PC     P3110511   1.619   5.067   1.832 -0.2986  0.1063  0.0976
  236PC     O3210512   1.558   5.150   1.717 -0.3197 -0.2248  0.1403
  236PC     C3110513   1.467   5.261   1.749 -0.2812  0.9010  0.7022
  236PC     H1A10514   1.454   5.284   1.856 -1.4996  0.3216  0.6962
  236PC     H1B10515   1.495   5.349   1.691  0.0997 -0.7762 -1.7928
  236PC     C3210516   1.322   5.211   1.710  0.3739  0.1555 -0.2718
  236PC     H2A10517   1.322   5.102   1.706  2.0203  0.1689 -1.7730
  236PC     H2B10518   1.245   5.240   1.782  0.3302  2.2076 -1.0804
  236PC     N3110519   1.259   5.253   1.582 -0.2916 -0.5377  0.3567
  236PC     C3310520   1.149   5.160   1.556  0.2027  0.2314  0.9888
  236PC     H3A10521   1.169   5.073   1.619 -0.3880  0.5876  1.6879
  236PC     H3B10522   1.062   5.208   1.601  1.0056  0.7977  1.9967
  236PC     H3C10523   1.135   5.133   1.452  1.0029 -3.6637  1.7323
  236PC     C3410524   1.203   5.386   1.606  0.1306  0.5628  0.5341
  236PC     H4A10525   1.126   5.385   1.684 -1.0682  1.7800 -0.5651
  236PC     H4B10526   1.287   5.445   1.644 -0.3257  1.3088  0.4040
  236PC     H4C10527   1.172   5.422   1.508 -0.7681 -0.1611  0.5401
  236PC     C3510528   1.353   5.245   1.468 -0.3171 -0.6807  0.3447
  236PC     H5A10529   1.454   5.272   1.498  0.1449 -0.6415 -1.2048
  236PC     H5B10530   1.308   5.299   1.385 -0.2132  0.8569  1.2537
  236PC     H5C10531   1.353   5.138   1.445 -0.1997 -0.2230 -1.9836
  236PC     O3310532   1.701   4.966   1.755  0.4226  0.1093 -0.3967
  236PC     O3410533   1.505   5.024   1.917 -0.0966 -0.9068  0.2290
  236PC     O2110534   1.634   5.144   2.267  0.8452 -0.1214  0.1778
  236PC     C2110535   1.570   5.045   2.322  0.0560  0.3568  0.4073
  236PC     O2210536   1.571   4.930   2.289 -0.2443 -0.1250  0.0653
  237OL     C1210537   1.498   5.086   2.449  0.3107  0.1309  1.0382
  237OL     H2R10538   1.395   5.098   2.415  1.0023 -0.5015 -1.4047
  237OL     H2S10539   1.533   5.187   2.473  1.2279  0.1783 -0.4394
  237OL     C1310540   1.527   4.980   2.556  0.2935  0.0210 -0.3066
  237OL     H3R10541   1.626   4.991   2.602  0.1379  0.3570 -0.0448
  237OL     H3S10542   1.517   4.879   2.516  1.4321 -0.3011  0.1565
  237OL     C1410543   1.421   4.985   2.670 -0.4777  0.0812 -0.0631
  237OL     H4R10544   1.406   5.084   2.714  1.3866  0.5184 -0.3381
  237OL     H4S10545   1.456   4.923   2.752  1.5543 -1.2599 -1.8555
  237OL     C1510546   1.282   4.953   2.614  0.1885  0.3502  0.0616
  237OL     H5R10547   1.273   4.856   2.565  0.2034  1.2254 -1.7677
  237OL     H5S10548   1.247   5.036   2.553 -1.2271  0.5219  1.0622
  237OL     C1610549   1.181   4.934   2.729  0.2629  0.0323  0.1794
  237OL     H6R10550   1.080   4.951   2.691  0.4538  0.1036 -0.3119
  237OL     H6S10551   1.199   5.011   2.805 -0.2287 -0.0093  0.3398
  237OL     C1710552   1.194   4.796   2.791 -0.2353 -0.0572  0.6545
  237OL     H7R10553   1.291   4.782   2.837  0.1706  0.2397 -0.0834
  237OL     H7S10554   1.180   4.722   2.712 -0.5438 -0.2063  0.8436
  237OL     C1810555   1.079   4.770   2.884  0.0616 -0.4164  0.3057
  237OL     H8R10556   0.980   4.778   2.839 -0.5327 -2.4734  1.1444
  237OL     H8S10557   1.085   4.842   2.966 -1.2288 -1.5648  1.4618
  237OL     C1910558   1.083   4.641   2.960  0.3390  0.1969 -0.1536
  237OL     H9R10559   1.183   4.612   2.990 -0.2954 -0.4187  1.4571
  237OL    C11010560   0.987   4.554   2.989  0.1130 -0.2969 -0.3482
  237OL    H10R10561   1.014   4.461   3.038  1.7840 -0.3413 -1.2875
  237OL    C11110562   0.838   4.573   2.959 -0.3022  0.2019  0.6682
  237OL    H11R10563   0.805   4.498   2.887  3.5559 -1.3021  0.2042
  237OL    H11S10564   0.821   4.671   2.914  0.4201 -0.1422 -0.3950
  237OL    C11210565   0.747   4.558   3.083  0.2284  0.6558  0.5606
  237OL    H12R10566   0.753   4.455   3.118 -0.5543  0.5242  0.3166
  237OL    H12S10567   0.649   4.571   3.037  0.8625  2.3846 -0.3963
  237OL    C11310568   0.765   4.671   3.184  0.1203 -0.3048 -0.1073
  237OL    H13R10569   0.667   4.692   3.227  0.4444  1.1838 -0.0574
  237OL    H13S10570   0.793   4.762   3.132  0.0445 -0.5903 -0.6603
  237OL    C11410571   0.864   4.642   3.296 -0.5390 -0.3064 -0.0793
  237OL    H14R10572   0.849   4.722   3.369 -0.4179  1.2240 -1.6653
  237OL    H14S10573   0.965   4.648   3.255  0.1299  1.1973  1.6340
  237OL    C11510574   0.844   4.506   3.375 -0.8326 -0.3937  0.2761
  237OL    H15R10575   0.907   4.533   3.460  0.4192  0.3707 -0.8535
  237OL    H15S10576   0.890   4.425   3.318 -0.3797 -1.3220  1.9019
  237OL    C11610577   0.699   4.487   3.427  0.2026  0.0648  0.5962
  237OL    H16R10578   0.693   4.390   3.476  0.6032  1.4500  3.5738
  237OL    H16S10579   0.634   4.483   3.340 -1.4665 -1.2933  1.8520
  237OL    C11710580   0.643   4.596   3.526 -0.2267  0.1976 -0.8097
  237OL    H17R10581   0.536   4.580   3.542 -0.1246  0.7653  0.5726
  237OL    H17S10582   0.653   4.699   3.489 -0.9535  0.4551 -0.3244
  237OL    C11810583   0.717   4.576   3.662 -0.5751 -0.1853  0.1552
  237OL    H18R10584   0.672   4.642   3.736 -2.4124 -1.2996  0.0947
  237OL    H18S10585   0.822   4.606   3.652 -0.2792 -1.2927 -0.1672
  237OL    H18T10586   0.705   4.477   3.705 -3.2198  0.7773  1.8456
  238PA    C11610587   5.918   0.246   3.734 -0.0247 -0.0432  0.0195
  238PA    H16R10588   6.016   0.215   3.770 -0.5716  0.0513  1.6808
  238PA    H16S10589   5.841   0.186   3.784 -1.0830  0.1215 -1.3355
  238PA    H16T10590   5.903   0.353   3.754  2.0760  0.3548 -0.3148
  238PA    C11510591   5.906   0.212   3.584 -0.2437 -0.1105  0.4194
  238PA    H15R10592   5.979   0.258   3.517 -1.2443  0.7954 -0.0907
  238PA    H15S10593   5.921   0.106   3.567 -1.0913 -0.1137 -0.3774
  238PA    C11410594   5.762   0.237   3.525 -0.2442  0.1120 -0.8336
  238PA    H14R10595   5.746   0.177   3.436 -1.3891 -0.4616 -0.2604
  238PA    H14S10596   5.685   0.208   3.596 -1.3891  1.3690 -1.5081
  238PA    C11310597   5.741   0.385   3.486 -0.7832 -0.2168 -0.6167
  238PA    H13R10598   5.731   0.441   3.579  2.2184 -0.1353 -0.2522
  238PA    H13S10599   5.820   0.420   3.420 -1.6631  0.7435 -1.2018
  238PA    C11210600   5.622   0.410   3.399 -0.2051 -0.8436  0.5894
  238PA    H12R10601   5.642   0.359   3.304  0.5894  1.1702 -0.3894
  238PA    H12S10602   5.525   0.379   3.439 -0.9979 -0.1116 -0.6919
  238PA    C11110603   5.614   0.566   3.371  0.0209  0.7145 -0.5950
  238PA    H11R10604   5.583   0.619   3.461  0.9396 -0.9787  0.7834
  238PA    H11S10605   5.719   0.593   3.358  0.3068  1.4515  2.5429
  238PA    C11010606   5.529   0.605   3.243 -0.8997 -0.1741  0.4972
  238PA    H10R10607   5.421   0.587   3.242 -1.1429  1.1759 -0.0345
  238PA    H10S10608   5.525   0.715   3.245 -0.4667 -0.1178 -0.9842
  238PA     C1910609   5.612   0.556   3.120  0.2716  0.4765  0.3797
  238PA     H9R10610   5.720   0.575   3.125  0.2054  0.9013  0.2344
  238PA     H9S10611   5.599   0.448   3.123  0.6174  0.4186  0.0499
  238PA     C1810612   5.547   0.604   2.984  0.4733 -0.2097  0.0087
  238PA     H8R10613   5.444   0.568   2.974  1.0755 -2.0015 -0.0729
  238PA     H8S10614   5.548   0.713   2.985  0.0437 -0.1974 -0.4213
  238PA     C1710615   5.629   0.556   2.863 -0.3077  0.2349  0.4207
  238PA     H7R10616   5.736   0.558   2.885  0.3220  0.0555 -2.3313
  238PA     H7S10617   5.599   0.453   2.840  0.0103  0.1150  0.5385
  238PA     C1610618   5.623   0.648   2.741  0.3948 -0.3588 -0.5036
  238PA     H6R10619   5.519   0.656   2.708  0.3161 -2.9083 -1.0423
  238PA     H6S10620   5.662   0.744   2.775 -2.5594  0.1834  1.8361
  238PA     C1510621   5.707   0.592   2.631 -0.0817  0.6234 -0.5631
  238PA     H5R10622   5.814   0.598   2.648 -0.0694 -1.3517  0.2958
  238PA     H5S10623   5.691   0.485   2.615  0.2647  0.6472 -1.0788
  238PA     C1410624   5.688   0.667   2.496  0.0747  0.0105 -0.4898
  238PA     H4R10625   5.580   0.660   2.482  0.0908 -0.9095 -0.2729
  238PA     H4S10626   5.722   0.770   2.505 -1.6879  0.6417 -0.7658
  238PA     C1310627   5.752   0.601   2.376 -0.0154 -0.5561 -0.3724
  238PA     H3R10628   5.855   0.635   2.371 -0.8097  1.9091 -2.2354
  238PA     H3S10629   5.754   0.492   2.375  1.6676 -0.5444 -1.6052
  238PA     C1210630   5.688   0.647   2.249 -0.2784  0.1408  0.0167
  238PA     H2R10631   5.706   0.572   2.172 -1.8079 -2.1480  1.7371
  238PA     H2S10632   5.579   0.641   2.252 -0.3561  1.2992 -0.0023
  239PC     C1110633   5.735   0.785   2.202  0.6332 -0.4995 -0.4094
  239PC     O1210634   5.829   0.802   2.129  0.1099 -1.1586 -0.1550
  239PC     O1110635   5.663   0.879   2.264  0.3462 -0.2464 -0.2597
  239PC      C110636   5.703   1.009   2.223 -0.0570  0.1065 -0.3413
  239PC      HR10637   5.801   1.037   2.264 -0.5770  1.6654 -0.0669
  239PC      HS10638   5.695   1.020   2.115  1.2460  1.8400 -0.3076
  239PC      C210639   5.598   1.106   2.283 -0.4181  0.2448  0.2902
  239PC      HX10640   5.499   1.076   2.247 -0.0910  0.3871 -0.7624
  239PC      C310641   5.616   1.248   2.223 -0.5245  0.0801  0.5512
  239PC      HA10642   5.534   1.307   2.265 -0.0893  0.0987  1.4007
  239PC      HB10643   5.709   1.286   2.266 -0.0741 -3.4582  3.1548
  239PC     O3110644   5.617   1.248   2.076 -0.3049 -0.6997 -0.2169
  239PC     P3110645   5.492   1.220   1.978 -0.4422 -0.3277 -0.0219
  239PC     O3210646   5.524   1.068   1.936 -0.2436 -0.1606  0.1530
  239PC     C3110647   5.615   1.033   1.824  0.3567  0.0001 -0.7732
  239PC     H1A10648   5.588   1.099   1.741 -1.6839 -0.2394 -0.3654
  239PC     H1B10649   5.712   1.063   1.865  0.3981  1.5404 -1.9288
  239PC     C3210650   5.607   0.880   1.805 -0.0871 -0.4505 -0.1261
  239PC     H2A10651   5.689   0.854   1.737  2.0404 -3.6886  3.3389
  239PC     H2B10652   5.622   0.836   1.903 -0.3612  1.4260  0.7948
  239PC     N3110653   5.476   0.825   1.752 -0.4735  0.3291  0.0279
  239PC     C3310654   5.381   0.820   1.862  0.1416  0.0771  0.0344
  239PC     H3A10655   5.421   0.757   1.942 -0.1179 -1.2896 -0.8634
  239PC     H3B10656   5.361   0.919   1.903 -0.7469  0.5721 -1.5056
  239PC     H3C10657   5.290   0.772   1.827  0.1013 -0.7383  1.1850
  239PC     C3410658   5.408   0.907   1.645  0.2369  0.4444 -0.3065
  239PC     H4A10659   5.331   0.841   1.605 -0.6783 -0.2961  2.4437
  239PC     H4B10660   5.357   0.994   1.687 -1.6307 -1.4152  1.5658
  239PC     H4C10661   5.481   0.940   1.571  0.1416  0.3899 -0.4249
  239PC     C3510662   5.497   0.685   1.695  0.1472 -0.7806 -0.0120
  239PC     H5A10663   5.538   0.700   1.595  1.9627  3.6592  1.1846
  239PC     H5B10664   5.400   0.635   1.685 -0.6518  0.5669  0.6691
  239PC     H5C10665   5.560   0.624   1.760 -0.5576 -0.0412  1.4242
  239PC     O3310666   5.369   1.220   2.049  0.0828  0.0125  0.1276
  239PC     O3410667   5.505   1.303   1.856 -0.1621  0.0238 -0.4983
  239PC     O2110668   5.601   1.113   2.427  0.4425  0.3400  0.3204
  239PC     C2110669   5.510   1.032   2.499 -0.0663 -1.0668 -0.1103
  239PC     O2210670   5.432   0.957   2.444  0.3381 -0.6440  0.1065
  240OL     C1210671   5.526   1.063   2.648 -0.3716  0.1664 -0.0751
  240OL     H2R10672   5.515   1.171   2.659 -0.6100  0.2020 -0.5918
  240OL     H2S10673   5.629   1.044   2.678 -0.4057 -0.0575 -0.0938
  240OL     C1310674   5.421   0.981   2.728  0.5529  0.6042  0.4636
  240OL     H3R10675   5.436   0.877   2.699  1.3267  0.1043  2.4644
  240OL     H3S10676   5.322   1.018   2.701 -0.8519 -2.1687  1.3909
  240OL     C1410677   5.461   0.993   2.881 -0.0031  0.6827 -0.8806
  240OL     H4R10678   5.493   1.097   2.892  0.0909  0.5597  0.0316
  240OL     H4S10679   5.545   0.927   2.900 -1.2769 -1.1501 -1.2716
  240OL     C1510680   5.338   0.964   2.973  0.4124  0.3907 -0.2504
  240OL     H5R10681   5.304   0.862   2.953 -0.9410  0.8431 -0.3195
  240OL     H5S10682   5.254   1.030   2.951 -0.6143 -1.0520 -0.8603
  240OL     C1610683   5.386   0.982   3.115  0.7004 -0.1583 -0.1458
  240OL     H6R10684   5.418   1.085   3.131  0.8775 -0.5332  2.3428
  240OL     H6S10685   5.477   0.923   3.128  2.2785  2.3943  1.1409
  240OL     C1710686   5.287   0.939   3.223 -0.4888 -0.0962 -0.2092
  240OL     H7R10687   5.260   0.838   3.192  0.3280  0.0473 -1.5078
  240OL     H7S10688   5.199   1.003   3.225 -0.0824  0.4460  1.9158
  240OL     C1810689   5.348   0.941   3.363  0.0441 -0.0324  0.6004
  240OL     H8R10690   5.386   1.040   3.387 -1.3145 -0.0627  3.1946
  240OL     H8S10691   5.431   0.869   3.369 -0.4952 -0.7600 -0.3551
  240OL     C1910692   5.234   0.913   3.457 -0.5315 -0.0302 -0.6214
  240OL     H9R10693   5.141   0.964   3.432 -1.9629 -1.6594  1.0869
  240OL    C11010694   5.225   0.818   3.558 -0.6119 -1.0302  0.0195
  240OL    H10R10695   5.128   0.807   3.607 -0.6427 -0.2597  0.1493
  240OL    C11110696   5.335   0.729   3.588  0.6738  0.5685 -0.5176
  240OL    H11R10697   5.333   0.724   3.697 -0.7668 -1.3254 -0.5789
  240OL    H11S10698   5.434   0.763   3.557  0.6147  1.6337  0.4004
  240OL    C11210699   5.302   0.583   3.538 -0.3796 -0.4643 -0.2983
  240OL    H12R10700   5.389   0.517   3.546  1.5403  2.0025  0.6160
  240OL    H12S10701   5.277   0.590   3.432  3.7987  1.0295 -1.3980
  240OL    C11310702   5.182   0.520   3.613  0.3069  0.4666  0.2494
  240OL    H13R10703   5.158   0.425   3.564  0.6657  0.4032  0.1888
  240OL    H13S10704   5.093   0.582   3.610  0.3723  0.5233 -0.6927
  240OL    C11410705   5.221   0.496   3.763  0.2792  0.5735  0.0913
  240OL    H14R10706   5.230   0.593   3.812 -2.3462 -0.4878  3.0249
  240OL    H14S10707   5.319   0.448   3.761  0.4463  0.9246 -1.9481
  240OL    C11510708   5.121   0.420   3.854  0.2635  0.3363  0.8641
  240OL    H15R10709   5.160   0.413   3.956 -2.7932  1.6679  2.2634
  240OL    H15S10710   5.115   0.317   3.818 -0.6864  0.2196  1.3142
  240OL    C11610711   4.982   0.490   3.857  0.3430 -0.1483  0.3254
  240OL    H16R10712   4.949   0.489   3.753 -0.8445 -1.3882  0.6802
  240OL    H16S10713   4.994   0.593   3.893 -0.6641  0.7056 -1.6601
  240OL    C11710714   4.880   0.398   3.932 -0.2300  0.2375  0.0145
  240OL    H17R10715   4.902   0.293   3.912 -0.3603  0.0352  0.8985
  240OL    H17S10716   4.783   0.424   3.888 -0.0477  0.0162 -0.5288
  240OL    C11810717   4.869   0.409   4.085  0.5230 -0.4656 -0.1678
  240OL    H18R10718   4.838   0.508   4.119  3.0491  1.2608 -2.5058
  240OL    H18S10719   4.955   0.379   4.145 -0.2856 -0.9996  0.7730
  240OL    H18T10720   4.786   0.346   4.120  0.0765  0.9264  1.4303
  241PA    C11610721   0.001   0.533   3.864  0.2459  0.0570  0.4175
  241PA    H16R10722  -0.062   0.459   3.912 -0.4423  1.7710  2.2723
  241PA    H16S10723  -0.063   0.598   3.805 -1.1037 -0.7229  0.9858
  241PA    H16T10724   0.046   0.593   3.943  0.8077 -0.4133  0.4610
  241PA    C11510725   0.111   0.465   3.773 -0.0093 -0.2003 -0.8378
  241PA    H15R10726   0.189   0.541   3.764  0.0507 -0.0959  0.4284
  241PA    H15S10727   0.144   0.376   3.827 -0.8400  0.2069  0.3734
  241PA    C11410728   0.069   0.417   3.628  0.0126  0.5199 -0.0128
  241PA    H14R10729  -0.029   0.371   3.639  1.1997 -2.0637  0.5167
  241PA    H14S10730   0.048   0.505   3.566  0.4602  0.6189 -0.0289
  241PA    C11310731   0.159   0.314   3.553 -0.9149 -0.2635 -0.2195
  241PA    H13R10732   0.167   0.214   3.597  0.5509  0.1309  0.4642
  241PA    H13S10733   0.110   0.312   3.456  0.2390 -0.0095 -0.8236
  241PA    C11210734   0.300   0.369   3.546  0.1354  0.1580 -0.3315
  241PA    H12R10735   0.293   0.478   3.538  0.5257  0.3900  1.7532
  241PA    H12S10736   0.350   0.362   3.643  1.6851 -0.3118 -1.1396
  241PA    C11110737   0.383   0.311   3.430 -0.2367 -0.1763 -0.1853
  241PA    H11R10738   0.479   0.363   3.429  0.0633 -0.6609  1.1082
  241PA    H11S10739   0.402   0.205   3.442 -0.3262 -0.2644 -0.7851
  241PA    C11010740   0.321   0.322   3.290 -0.7452 -0.6860  0.2501
  241PA    H10R10741   0.218   0.285   3.288 -0.2918 -2.0318 -1.8622
  241PA    H10S10742   0.308   0.430   3.280  0.0319 -0.5674  0.4642
  241PA     C1910743   0.396   0.266   3.175  0.0565 -0.1691 -0.0497
  241PA     H9R10744   0.497   0.307   3.171  0.3196 -0.4584  2.2438
  241PA     H9S10745   0.394   0.157   3.167 -1.7089 -0.0464 -2.6766
  241PA     C1810746   0.332   0.315   3.047  0.5317 -0.1650 -0.0424
  241PA     H8R10747   0.226   0.289   3.053  0.6076 -0.6469 -0.7262
  241PA     H8S10748   0.333   0.424   3.040 -0.7000 -0.1256  0.0960
  241PA     C1710749   0.396   0.248   2.929 -0.0435  0.6657 -0.0140
  241PA     H7R10750   0.498   0.288   2.931 -0.0406  0.6482  0.1888
  241PA     H7S10751   0.400   0.140   2.941 -2.3125  0.8425  4.8388
  241PA     C1610752   0.347   0.308   2.795 -0.3184  0.7230 -0.0662
  241PA     H6R10753   0.242   0.285   2.777 -0.6154  1.1149  1.0718
  241PA     H6S10754   0.335   0.416   2.803  0.5858  0.7918  0.5482
  241PA     C1510755   0.440   0.258   2.680  0.3072 -0.3390  0.2978
  241PA     H5R10756   0.544   0.286   2.694  0.6288 -2.5772  3.2744
  241PA     H5S10757   0.440   0.149   2.691 -0.8932 -0.5101 -1.0773
  241PA     C1410758   0.387   0.315   2.547  0.8778  0.2398 -0.1593
  241PA     H4R10759   0.281   0.289   2.549  0.4300  1.9567 -0.0836
  241PA     H4S10760   0.403   0.421   2.531 -0.7287  0.6589  0.8038
  241PA     C1310761   0.437   0.231   2.425 -0.3264 -0.8164 -0.5393
  241PA     H3R10762   0.546   0.234   2.430 -0.3354 -1.7496  0.6542
  241PA     H3S10763   0.409   0.126   2.440  2.6010 -1.5701  0.2774
  241PA     C1210764   0.394   0.302   2.287  1.0012 -0.1644  0.7033
  241PA     H2R10765   0.291   0.272   2.268  1.1571  0.0749 -0.6242
  241PA     H2S10766   0.420   0.407   2.295 -0.8559  0.4324 -0.5562
  242PC     C1110767   0.461   0.236   2.168 -0.4131 -0.1334  0.2441
  242PC     O1210768   0.545   0.286   2.092 -0.1876 -0.2000 -0.1371
  242PC     O1110769   0.422   0.104   2.152  0.0545 -0.4421  0.1497
  242PC      C110770   0.488   0.033   2.045 -0.8314  0.3135 -0.1880
  242PC      HR10771   0.461   0.069   1.946 -1.1975 -1.7115 -0.8584
  242PC      HS10772   0.596   0.040   2.057 -0.9053 -0.6606  1.2623
  242PC      C210773   0.442  -0.115   2.051  0.0606  0.0587  0.6566
  242PC      HX10774   0.508  -0.173   1.986 -0.6536 -0.0370  0.0025
  242PC      C310775   0.294  -0.140   2.000 -0.7916 -0.0538  0.1505
  242PC      HA10776   0.219  -0.143   2.080 -1.5290 -0.8431 -0.5520
  242PC      HB10777   0.270  -0.049   1.943 -0.6426 -0.7499 -1.0506
  242PC     O3110778   0.286  -0.252   1.910 -0.0021 -0.3795 -0.3827
  242PC     P3110779   0.278  -0.398   1.975 -0.1807  0.1549  0.3685
  242PC     O3210780   0.423  -0.451   1.958  0.2413  0.2456  0.2047
  242PC     C3110781   0.460  -0.522   1.835  0.6055 -0.3295  0.4183
  242PC     H1A10782   0.402  -0.615   1.831 -0.3546  0.2523  0.2505
  242PC     H1B10783   0.427  -0.457   1.754 -1.4496 -0.4577  1.0792
  242PC     C3210784   0.609  -0.552   1.851  0.4262  0.1796 -0.0660
  242PC     H2A10785   0.640  -0.613   1.767  0.6925 -0.5815  0.5764
  242PC     H2B10786   0.674  -0.465   1.862  0.8127 -0.0369 -0.6293
  242PC     N3110787   0.652  -0.633   1.970 -0.2428  1.1761  0.3269
  242PC     C3310788   0.679  -0.551   2.089  0.0685  0.0960  0.6531
  242PC     H3A10789   0.729  -0.618   2.158 -0.1706 -0.2893  0.4584
  242PC     H3B10790   0.741  -0.466   2.061 -0.3627  0.4672  0.8053
  242PC     H3C10791   0.580  -0.526   2.128 -0.2300  1.4871 -0.8731
  242PC     C3410792   0.548  -0.738   2.005 -0.8303 -0.3382  0.2028
  242PC     H4A10793   0.579  -0.802   2.088  2.5347  0.7724 -0.0210
  242PC     H4B10794   0.455  -0.684   2.024 -0.4287  1.1598 -1.7324
  242PC     H4C10795   0.530  -0.800   1.917 -0.2595 -0.2416  0.0158
  242PC     C3510796   0.772  -0.707   1.925  0.0621  1.1200  0.0422
  242PC     H5A10797   0.807  -0.775   2.003  0.6861  1.4053  0.0248
  242PC     H5B10798   0.848  -0.631   1.904 -1.6200  2.4115 -1.8200
  242PC     H5C10799   0.746  -0.757   1.831  1.1074  0.6843 -0.0345
  242PC     O3310800   0.247  -0.384   2.121  0.1792  0.0807  0.6860
  242PC     O3410801   0.188  -0.484   1.888  0.7472 -0.4009 -0.7719
  242PC     O2110802   0.447  -0.165   2.188  0.4438 -0.6348  0.1136
  242PC     C2110803   0.569  -0.213   2.227 -0.4458 -0.8427 -1.1945
  242PC     O2210804   0.663  -0.217   2.151 -0.1441 -1.0314  0.1668
  243OL     C1210805   0.568  -0.242   2.377  0.2776  1.2379 -0.6354
  243OL     H2R10806   0.482  -0.309   2.390 -0.0051  1.8422  0.7997
  243OL     H2S10807   0.537  -0.147   2.419 -1.7359  0.3319  0.0741
  243OL     C1310808   0.699  -0.302   2.441 -0.3483  0.5235 -0.5846
  243OL     H3R10809   0.781  -0.231   2.435  1.8133 -1.8786 -1.5812
  243OL     H3S10810   0.732  -0.388   2.382  1.1688  1.3575 -0.9993
  243OL     C1410811   0.680  -0.346   2.586  0.9925  0.2829  0.3502
  243OL     H4R10812   0.766  -0.408   2.614  0.5516 -0.6994 -0.3765
  243OL     H4S10813   0.597  -0.418   2.588  0.9996  0.2811  0.7366
  243OL     C1510814   0.651  -0.229   2.692 -0.1967  0.9170  0.5519
  243OL     H5R10815   0.592  -0.162   2.630 -0.9502 -2.2363 -2.4600
  243OL     H5S10816   0.743  -0.180   2.723  0.9333 -0.2410 -0.8210
  243OL     C1610817   0.581  -0.280   2.816  0.2117  0.1557 -0.3294
  243OL     H6R10818   0.634  -0.361   2.866  0.0315 -0.4525 -1.1067
  243OL     H6S10819   0.478  -0.307   2.793  0.6387 -0.9180 -1.0785
  243OL     C1710820   0.564  -0.174   2.925  0.3437  0.2161 -0.0725
  243OL     H7R10821   0.520  -0.081   2.889 -2.6263 -0.5275  1.3254
  243OL     H7S10822   0.659  -0.140   2.966 -0.2900  0.6065  1.1158
  243OL     C1810823   0.476  -0.234   3.031 -0.0117 -0.4023  0.2986
  243OL     H8R10824   0.511  -0.335   3.055  1.0914  0.1319  1.0047
  243OL     H8S10825   0.375  -0.242   2.991 -0.2331  0.0361  0.7562
  243OL     C1910826   0.489  -0.143   3.151  0.0194  0.5308  0.2076
  243OL     H9R10827   0.523  -0.043   3.124  0.1078 -0.2421 -3.0213
  243OL    C11010828   0.451  -0.184   3.274  0.0942  0.5517  0.0369
  243OL    H10R10829   0.469  -0.117   3.357  1.7888 -0.0709  0.2135
  243OL    C11110830   0.391  -0.318   3.319  0.3031  0.2074  0.1260
  243OL    H11R10831   0.310  -0.362   3.261  1.2608 -1.2063 -0.1986
  243OL    H11S10832   0.350  -0.300   3.419 -0.7508  0.6915 -0.3878
  243OL    C11210833   0.495  -0.421   3.339  0.3199  0.6420  0.4560
  243OL    H12R10834   0.560  -0.440   3.254  1.8222 -0.7827  1.8482
  243OL    H12S10835   0.449  -0.516   3.369 -1.8321  0.9664 -1.5718
  243OL    C11310836   0.590  -0.380   3.456 -0.5917 -0.2893 -0.3644
  243OL    H13R10837   0.531  -0.374   3.548  0.1811 -0.8562  0.1792
  243OL    H13S10838   0.641  -0.286   3.434 -0.9014  0.0718  0.4040
  243OL    C11410839   0.708  -0.484   3.469  0.1357 -0.0309 -0.2378
  243OL    H14R10840   0.788  -0.426   3.516 -0.2552  0.0581  0.3265
  243OL    H14S10841   0.747  -0.523   3.375  1.8916 -0.2039  0.5269
  243OL    C11510842   0.686  -0.608   3.559  0.5942  0.4537 -0.0820
  243OL    H15R10843   0.614  -0.679   3.517  1.9338 -0.8590 -0.2538
  243OL    H15S10844   0.640  -0.578   3.653  0.1668 -0.7667  0.1195
  243OL    C11610845   0.808  -0.685   3.603  0.4930 -0.8094  0.1340
  243OL    H16R10846   0.776  -0.776   3.654 -1.2530 -0.8176 -0.9222
  243OL    H16S10847   0.863  -0.625   3.677  1.5425 -1.0291 -0.4513
  243OL    C11710848   0.898  -0.733   3.479 -0.0016  0.2837 -0.0240
  243OL    H17R10849   0.947  -0.643   3.439 -1.6562  0.4698 -1.8490
  243OL    H17S10850   0.833  -0.770   3.399  0.0025  3.3867 -1.6306
  243OL    C11810851   1.009  -0.826   3.513 -0.3141  0.1828  0.9290
  243OL    H18R10852   0.980  -0.924   3.553  2.4691 -0.7328  0.9378
  243OL    H18S10853   1.073  -0.783   3.591 -0.5803  0.2498  1.1095
  243OL    H18T10854   1.062  -0.838   3.418 -2.1586 -1.3174  0.0290
  244PA    C11610855   5.265   2.962   3.710  0.4364  0.1401 -0.4821
  244PA    H16R10856   5.353   2.954   3.646  2.4132  0.8741  1.9641
  244PA    H16S10857   5.287   2.963   3.817  0.5422  0.9272 -0.4997
  244PA    H16T10858   5.215   3.059   3.704 -0.6053 -0.3306  0.2583
  244PA    C11510859   5.163   2.850   3.694  0.1770  0.4583  0.1682
  244PA    H15R10860   5.071   2.876   3.746 -0.8458  0.2350 -1.4804
  244PA    H15S10861   5.138   2.841   3.589  2.7195  0.8951 -0.5508
  244PA    C11410862   5.212   2.716   3.741 -0.4544  0.7579 -0.4213
  244PA    H14R10863   5.226   2.724   3.849 -0.1259  0.3006 -0.4265
  244PA    H14S10864   5.131   2.646   3.719  1.4092 -0.9904 -2.1851
  244PA    C11310865   5.338   2.656   3.669 -0.5440 -0.3841 -0.6032
  244PA    H13R10866   5.338   2.672   3.561 -0.2153 -1.3032 -0.7499
  244PA    H13S10867   5.418   2.715   3.713 -1.8834  0.9435  0.1715
  244PA    C11210868   5.358   2.504   3.704 -0.1412  0.0471  0.2619
  244PA    H12R10869   5.347   2.502   3.813 -0.9397 -0.7608  0.1841
  244PA    H12S10870   5.269   2.462   3.656 -2.1213  4.1549 -0.1385
  244PA    C11110871   5.489   2.440   3.646  0.1745 -0.6985 -0.5755
  244PA    H11R10872   5.572   2.504   3.678 -1.0707  0.8704 -0.4106
  244PA    H11S10873   5.502   2.340   3.690 -2.6631 -1.0670 -0.3728
  244PA    C11010874   5.489   2.429   3.489 -1.5771 -0.1532 -0.1608
  244PA    H10R10875   5.410   2.361   3.457 -0.0577 -1.7633 -0.6796
  244PA    H10S10876   5.473   2.528   3.445  2.0956  0.8723  0.4357
  244PA     C1910877   5.621   2.371   3.440 -0.1934  0.0292 -0.0880
  244PA     H9R10878   5.644   2.279   3.493 -3.1103 -0.7359 -0.0163
  244PA     H9S10879   5.605   2.335   3.338 -2.5878 -1.1130  0.6384
  244PA     C1810880   5.740   2.479   3.437  0.7898  0.4698  0.1563
  244PA     H8R10881   5.714   2.562   3.371 -0.1403  1.1017  1.2920
  244PA     H8S10882   5.747   2.514   3.540 -1.7190 -1.0290  0.9206
  244PA     C1710883   5.872   2.416   3.380 -0.9620  0.2605  0.2595
  244PA     H7R10884   5.940   2.500   3.364 -2.1388  0.8592 -1.8904
  244PA     H7S10885   5.916   2.358   3.462 -2.4492 -1.6728 -0.2441
  244PA     C1610886   5.853   2.336   3.247 -0.0561  0.0472 -0.5781
  244PA     H6R10887   5.812   2.238   3.274  0.5962 -0.2391 -0.6104
  244PA     H6S10888   5.783   2.391   3.184  2.0746  1.0388 -2.1700
  244PA     C1510889   5.989   2.310   3.175  0.3862  0.0704 -0.2412
  244PA     H5R10890   6.039   2.405   3.158 -0.0177  0.8067  2.2582
  244PA     H5S10891   6.061   2.246   3.227 -1.9801 -1.5697  1.2330
  244PA     C1410892   5.982   2.248   3.038 -0.6600  0.0076 -0.5059
  244PA     H4R10893   6.085   2.233   3.007 -0.1795  0.2822  0.9037
  244PA     H4S10894   5.930   2.152   3.042  0.8941 -0.8762 -0.8286
  244PA     C1310895   5.921   2.331   2.921 -0.1814 -0.3724 -0.6180
  244PA     H3R10896   5.814   2.342   2.941  0.0858 -0.3820  0.8539
  244PA     H3S10897   5.970   2.427   2.930 -1.9952  0.5570 -0.1128
  244PA     C1210898   5.930   2.274   2.777  0.1814  0.4592 -0.1215
  244PA     H2R10899   6.034   2.268   2.745 -0.1680 -1.7237 -0.9837
  244PA     H2S10900   5.893   2.172   2.790  0.0738  0.4312 -0.6160
  245PC     C1110901   5.840   2.332   2.667 -0.4197 -0.2803  0.0453
  245PC     O1210902   5.735   2.382   2.690  0.2335 -0.0200 -0.3284
  245PC     O1110903   5.894   2.342   2.547 -0.5128  0.1924  0.0819
  245PC      C110904   5.822   2.402   2.434 -0.2658  0.2824  0.1674
  245PC      HR10905   5.852   2.354   2.340  1.5716  1.7071 -0.0320
  245PC      HS10906   5.713   2.399   2.442 -0.4046  0.5428 -1.2349
  245PC      C210907   5.858   2.554   2.426  0.6906 -0.0060 -0.3642
  245PC      HX10908   5.811   2.610   2.345 -0.0451  0.7277  0.5336
  245PC      C310909   6.011   2.571   2.407 -0.2039  0.3006 -0.3875
  245PC      HA10910   6.043   2.673   2.430  0.5076  0.0328 -0.1610
  245PC      HB10911   6.066   2.518   2.485  0.3437  0.3325 -0.7501
  245PC     O3110912   6.050   2.529   2.276 -0.0318 -0.3515  0.1636
  245PC     P3110913   6.095   2.627   2.170 -0.4033 -0.1251 -0.3002
  245PC     O3210914   6.240   2.680   2.231 -0.7940  0.4150 -0.4867
  245PC     C3110915   6.351   2.589   2.239  0.1229 -0.4801  0.3171
  245PC     H1A10916   6.412   2.611   2.327  1.0537 -0.3692 -0.3400
  245PC     H1B10917   6.312   2.488   2.255  1.8500 -0.7877  3.4498
  245PC     C3210918   6.432   2.619   2.104 -0.0213 -0.2847 -0.1300
  245PC     H2A10919   6.374   2.612   2.012 -1.4983 -0.5119  0.7756
  245PC     H2B10920   6.450   2.726   2.104 -1.3203 -0.0492 -0.8135
  245PC     N3110921   6.564   2.549   2.087  0.6918  0.2704  0.4179
  245PC     C3310922   6.681   2.611   2.160 -0.0603 -0.3899  0.2886
  245PC     H3A10923   6.694   2.714   2.128 -2.3980 -0.1423 -0.0465
  245PC     H3B10924   6.650   2.598   2.264 -1.0731  0.3563  0.0921
  245PC     H3C10925   6.766   2.547   2.135  1.7861  1.9937  0.0985
  245PC     C3410926   6.549   2.404   2.135 -0.5223 -0.2698 -0.8271
  245PC     H4A10927   6.444   2.377   2.151  0.3284 -1.9192  3.1966
  245PC     H4B10928   6.595   2.339   2.060  0.4977  0.8364 -1.1716
  245PC     H4C10929   6.603   2.392   2.228 -0.3635  2.4247 -0.5145
  245PC     C3510930   6.602   2.550   1.945  0.0557  0.2803  0.1676
  245PC     H5A10931   6.605   2.647   1.895  2.0576 -0.0657 -0.4763
  245PC     H5B10932   6.534   2.488   1.887 -1.1560  1.1604  0.6231
  245PC     H5C10933   6.705   2.518   1.926  0.4801  1.8365 -0.3002
  245PC     O3310934   6.120   2.551   2.048  0.4906 -0.1691 -0.0515
  245PC     O3410935   6.000   2.740   2.174 -0.0330  0.5172  0.3338
  245PC     O2110936   5.826   2.627   2.549 -0.6309  0.3634 -0.1325
  245PC     C2110937   5.702   2.683   2.560  0.2388  0.4907 -0.4371
  245PC     O2210938   5.611   2.681   2.479  0.1894 -0.2050  0.3639
  246OL     C1210939   5.681   2.730   2.702 -0.0426 -0.0692 -1.0743
  246OL     H2R10940   5.658   2.646   2.767 -0.2079  1.2423  0.6127
  246OL     H2S10941   5.595   2.797   2.694  0.7509  0.8974 -1.8141
  246OL     C1310942   5.800   2.822   2.747  0.6872  0.7993 -0.5423
  246OL     H3R10943   5.789   2.921   2.703  0.7213  1.1438  0.2263
  246OL     H3S10944   5.888   2.772   2.706  0.1295  0.4065 -1.2927
  246OL     C1410945   5.809   2.837   2.904 -0.2824  0.1387 -0.0211
  246OL     H4R10946   5.722   2.885   2.948  0.2598 -0.1876  1.4550
  246OL     H4S10947   5.893   2.899   2.935 -0.0083 -0.5889  0.7162
  246OL     C1510948   5.830   2.700   2.974  0.7764  0.1795  0.0458
  246OL     H5R10949   5.924   2.659   2.937  0.4042 -0.6035 -0.0562
  246OL     H5S10950   5.750   2.630   2.949  0.1860 -0.0700  2.4651
  246OL     C1610951   5.848   2.724   3.131  0.6376  0.5626 -0.5576
  246OL     H6R10952   5.821   2.632   3.183 -0.0633  1.5793  0.9494
  246OL     H6S10953   5.782   2.800   3.174  2.2216 -0.2281  3.7851
  246OL     C1710954   5.994   2.754   3.161  0.0030 -0.1227 -0.2329
  246OL     H7R10955   6.034   2.830   3.093 -2.6698  0.9335 -0.7581
  246OL     H7S10956   6.045   2.657   3.153 -0.5385 -0.3425 -1.1291
  246OL     C1810957   6.012   2.803   3.305 -0.2270  0.9334 -0.2448
  246OL     H8R10958   5.991   2.724   3.377  1.1476  1.3033  0.5962
  246OL     H8S10959   5.931   2.873   3.329 -0.8659 -0.6570  2.8222
  246OL     C1910960   6.145   2.875   3.320 -0.3140  0.5760 -0.5043
  246OL     H9R10961   6.142   2.962   3.254 -0.1315  1.0730  0.1352
  246OL    C11010962   6.256   2.836   3.384 -0.0040  0.0571 -0.8194
  246OL    H10R10963   6.340   2.904   3.399  1.6160 -2.1330  0.6551
  246OL    C11110964   6.247   2.717   3.473 -0.2689 -0.1265 -0.1712
  246OL    H11R10965   6.145   2.697   3.505  0.3605 -0.5324  1.7126
  246OL    H11S10966   6.307   2.741   3.562  1.1648 -2.8441 -0.3047
  246OL    C11210967   6.328   2.609   3.390 -0.3133  0.7022 -0.9215
  246OL    H12R10968   6.428   2.651   3.380  0.2473  0.7676  3.0353
  246OL    H12S10969   6.289   2.586   3.291  0.6429  1.5930 -1.5296
  246OL    C11310970   6.343   2.483   3.475 -0.6841  0.5769 -0.3300
  246OL    H13R10971   6.383   2.515   3.572 -2.1710  2.0362 -0.1648
  246OL    H13S10972   6.414   2.414   3.428  2.9116  1.6616  2.9505
  246OL    C11410973   6.211   2.409   3.502  0.1170 -0.4894 -0.3343
  246OL    H14R10974   6.171   2.377   3.405 -0.9302 -1.7397  0.4836
  246OL    H14S10975   6.135   2.480   3.537 -0.8831 -1.2301 -0.9314
  246OL    C11510976   6.219   2.286   3.593  0.6972 -0.8809  0.3640
  246OL    H15R10977   6.292   2.215   3.554  1.6003 -0.4143  1.1750
  246OL    H15S10978   6.121   2.237   3.590 -0.2512  0.8768  0.9290
  246OL    C11610979   6.237   2.315   3.742 -0.2920 -0.4619  0.3438
  246OL    H16R10980   6.185   2.400   3.786  0.5051  0.1280  0.1714
  246OL    H16S10981   6.343   2.337   3.756 -0.7601  3.4884 -1.0585
  246OL    C11710982   6.183   2.209   3.833  0.1446  0.9032 -0.1874
  246OL    H17R10983   6.077   2.193   3.811  0.1329 -0.4618  0.7388
  246OL    H17S10984   6.199   2.238   3.937 -2.6776  3.0044 -0.2262
  246OL    C11810985   6.236   2.066   3.812 -0.3876 -0.6438  0.0499
  246OL    H18R10986   6.200   2.024   3.718 -1.0977 -1.1402  0.5301
  246OL    H18S10987   6.198   2.007   3.896  1.2957  0.9505  2.0336
  246OL    H18T10988   6.344   2.053   3.822 -0.4370 -1.4850 -0.4057
  247PA    C11610989  -0.600  -0.166   4.001  0.0416  0.0753  0.5086
  247PA    H16R10990  -0.572  -0.060   4.007 -1.3487  0.5788 -1.1080
  247PA    H16S10991  -0.653  -0.191   4.093 -0.5310 -0.8109 -0.0477
  247PA    H16T10992  -0.662  -0.179   3.913  1.7643  1.5794 -1.0102
  247PA    C11510993  -0.468  -0.250   3.996  0.4943 -0.7289  0.1970
  247PA    H15R10994  -0.407  -0.236   4.086  0.5051 -0.3102  0.1242
  247PA    H15S10995  -0.496  -0.355   3.988 -0.2490 -0.4677 -0.7925
  247PA    C11410996  -0.384  -0.218   3.871  0.2326  0.0386  0.0971
  247PA    H14R10997  -0.368  -0.111   3.861  1.4289  0.1153  2.1103
  247PA    H14S10998  -0.294  -0.281   3.865  0.1194 -0.2713  1.4504
  247PA    C11310999  -0.455  -0.257   3.736  0.1115 -0.6352 -0.0298
  247PA    H13R11000  -0.484  -0.361   3.748 -2.9510  0.1708  0.3930
  247PA    H13S11001  -0.548  -0.203   3.716  0.2665  0.2337  1.4384
  247PA    C11211002  -0.345  -0.229   3.625 -0.3238  0.1165  1.0686
  247PA    H12R11003  -0.334  -0.120   3.617 -0.0662  0.0401  0.3427
  247PA    H12S11004  -0.249  -0.272   3.657 -0.4240 -0.5088  0.5284
  247PA    C11111005  -0.384  -0.297   3.492 -0.1086 -0.0838 -0.0213
  247PA    H11R11006  -0.291  -0.296   3.434 -0.5068 -1.9133 -0.7454
  247PA    H11S11007  -0.409  -0.400   3.515  2.0694 -0.3333  1.5448
  247PA    C11011008  -0.509  -0.249   3.417 -0.1256 -0.5948  0.0354
  247PA    H10R11009  -0.596  -0.305   3.453  0.3450 -1.8008 -0.6302
  247PA    H10S11010  -0.521  -0.144   3.444 -0.0187 -0.2000 -1.3525
  247PA     C1911011  -0.474  -0.269   3.268 -0.0238  0.7502 -0.8866
  247PA     H9R11012  -0.405  -0.194   3.228 -0.9892  2.1240 -0.0928
  247PA     H9S11013  -0.430  -0.369   3.260 -2.9014 -0.5324 -1.7150
  247PA     C1811014  -0.601  -0.258   3.186  0.0523  0.7059 -0.3448
  247PA     H8R11015  -0.670  -0.338   3.214  0.6831  0.0291 -0.6657
  247PA     H8S11016  -0.647  -0.164   3.215  1.9611  1.2910  1.0299
  247PA     C1711017  -0.573  -0.268   3.042 -0.5769  0.4502 -0.1060
  247PA     H7R11018  -0.484  -0.209   3.020  0.4536 -0.2886  1.8380
  247PA     H7S11019  -0.561  -0.373   3.016 -0.6709  0.4649 -0.2117
  247PA     C1611020  -0.686  -0.227   2.946 -0.2773  0.2391 -0.2118
  247PA     H6R11021  -0.782  -0.279   2.951 -0.6265  0.7781 -1.0188
  247PA     H6S11022  -0.709  -0.122   2.965 -0.3504  0.2092 -0.1324
  247PA     C1511023  -0.641  -0.259   2.806 -0.6457 -0.1685  0.8925
  247PA     H5R11024  -0.542  -0.221   2.782 -0.2759 -1.5715  0.1074
  247PA     H5S11025  -0.639  -0.366   2.788 -0.4353 -0.0916  0.4533
  247PA     C1411026  -0.738  -0.201   2.700 -0.2863  0.4226 -0.1997
  247PA     H4R11027  -0.835  -0.244   2.724  0.3352 -0.7469  0.3276
  247PA     H4S11028  -0.748  -0.093   2.711 -0.1757  0.4942 -0.7461
  247PA     C1311029  -0.681  -0.239   2.563  0.1765  0.3605  0.1577
  247PA     H3R11030  -0.582  -0.195   2.549  1.4259 -2.7070 -1.5995
  247PA     H3S11031  -0.675  -0.347   2.553  1.1046  0.1021  2.7445
  247PA     C1211032  -0.769  -0.175   2.451 -0.9838  0.2688  0.2258
  247PA     H2R11033  -0.876  -0.198   2.458 -1.0907  0.7655  0.2751
  247PA     H2S11034  -0.750  -0.068   2.462  3.8831 -0.2952 -0.7698
  248PC     C1111035  -0.725  -0.214   2.308 -0.1214  0.4120 -0.5787
  248PC     O1211036  -0.720  -0.330   2.264 -0.3186  0.2230 -0.3966
  248PC     O1111037  -0.679  -0.106   2.252  0.0325  0.1104  0.0584
  248PC      C111038  -0.630  -0.106   2.119 -0.2262 -0.2501  0.1625
  248PC      HR11039  -0.548  -0.035   2.103 -0.8230  0.1801 -1.0724
  248PC      HS11040  -0.585  -0.202   2.091 -0.4183  0.5383 -3.3238
  248PC      C211041  -0.735  -0.083   2.008 -1.0549  0.6790  0.6604
  248PC      HX11042  -0.812  -0.160   2.021  0.6387 -1.7091 -2.0298
  248PC      C311043  -0.673  -0.094   1.867  0.0435 -0.2494 -0.1430
  248PC      HA11044  -0.571  -0.057   1.871  0.9530 -2.5395 -0.4141
  248PC      HB11045  -0.670  -0.200   1.839 -0.1500 -0.7299  1.5453
  248PC     O3111046  -0.749  -0.023   1.763 -0.0586  0.2115  0.2404
  248PC     P3111047  -0.900  -0.079   1.720 -0.0215 -0.2212 -0.3305
  248PC     O3211048  -0.989   0.026   1.789 -0.1656  0.6095  0.3687
  248PC     C3111049  -0.999   0.154   1.727  0.1049  0.6654  0.3695
  248PC     H1A11050  -1.008   0.223   1.811  2.7798 -0.1493  1.4249
  248PC     H1B11051  -0.907   0.183   1.675 -1.7830  1.3032 -2.9402
  248PC     C3211052  -1.118   0.170   1.625  0.1257 -0.0514  0.0076
  248PC     H2A11053  -1.129   0.278   1.617  1.2294  0.0735  0.0157
  248PC     H2B11054  -1.084   0.130   1.529  1.4229  1.3996 -0.1898
  248PC     N3111055  -1.251   0.111   1.671 -0.6290 -0.2646 -0.0704
  248PC     C3311056  -1.362   0.138   1.578  0.3239  0.3017 -0.0891
  248PC     H3A11057  -1.324   0.127   1.476  0.8060 -0.1499  0.1398
  248PC     H3B11058  -1.444   0.069   1.599  0.3941  0.5063  0.8765
  248PC     H3C11059  -1.403   0.239   1.586 -1.0441 -0.2269 -0.1293
  248PC     C3411060  -1.250  -0.036   1.688 -0.0314 -0.1591 -0.5399
  248PC     H4A11061  -1.187  -0.066   1.772 -1.5108 -1.8015  0.0402
  248PC     H4B11062  -1.354  -0.060   1.711  0.3950 -0.6206  1.0765
  248PC     H4C11063  -1.213  -0.080   1.595  1.3123  1.7147 -0.9497
  248PC     C3511064  -1.302   0.180   1.788 -0.0335  0.2424 -0.2005
  248PC     H5A11065  -1.301   0.288   1.772  3.4785  0.4895  0.8310
  248PC     H5B11066  -1.233   0.157   1.870 -1.3741 -0.6797  0.7003
  248PC     H5C11067  -1.399   0.137   1.811 -0.0776 -0.0791 -0.9797
  248PC     O3311068  -0.920  -0.071   1.571 -0.8467  0.3698  0.1926
  248PC     O3411069  -0.922  -0.213   1.787  0.4378 -0.3088  0.2107
  248PC     O2111070  -0.794   0.047   2.031  0.3671 -0.4204  0.5101
  248PC     C2111071  -0.896   0.062   2.122 -0.3009  0.0637 -0.9800
  248PC     O2211072  -0.938  -0.035   2.190  0.2869  0.6322 -0.4316
  249OL     C1211073  -0.955   0.194   2.116  0.4530  0.1145 -0.2254
  249OL     H2R11074  -1.051   0.197   2.065  0.7790  0.6518 -0.8284
  249OL     H2S11075  -0.892   0.261   2.057 -1.5762  1.1003 -1.3428
  249OL     C1311076  -0.974   0.254   2.257 -0.5259 -0.9502  0.9792
  249OL     H3R11077  -1.059   0.213   2.313 -0.2157 -1.8983  0.7772
  249OL     H3S11078  -1.006   0.358   2.245 -0.6702 -1.1677 -0.8830
  249OL     C1411079  -0.843   0.244   2.341  0.4585 -0.3226  0.2653
  249OL     H4R11080  -0.766   0.288   2.277  0.8917 -1.1173  0.2328
  249OL     H4S11081  -0.822   0.139   2.363 -0.8954 -0.6275  0.1655
  249OL     C1511082  -0.843   0.329   2.474  0.6810  0.4558 -0.2246
  249OL     H5R11083  -0.867   0.434   2.457 -0.3394  0.1071 -1.0347
  249OL     H5S11084  -0.744   0.329   2.519  1.0557 -1.8558 -0.9076
  249OL     C1611085  -0.942   0.276   2.581  0.1208 -0.5848  0.3183
  249OL     H6R11086  -1.040   0.274   2.534 -0.6196 -0.0971  1.7531
  249OL     H6S11087  -0.947   0.357   2.655  0.7590 -0.5511  0.3288
  249OL     C1711088  -0.900   0.150   2.658  0.4436  0.5216 -0.2801
  249OL     H7R11089  -0.811   0.163   2.720  1.4270  1.0977 -1.7582
  249OL     H7S11090  -0.883   0.086   2.571 -1.4704 -1.2416  0.5473
  249OL     C1811091  -1.015   0.080   2.731 -0.7697 -0.8347  0.0997
  249OL     H8R11092  -0.966   0.014   2.803 -1.0656  1.0274  2.1114
  249OL     H8S11093  -1.078   0.027   2.659  0.7607 -1.5293 -0.7759
  249OL     C1911094  -1.098   0.172   2.813 -0.1884  0.0903  0.1772
  249OL     H9R11095  -1.197   0.195   2.773 -1.4498 -3.6334  0.8294
  249OL    C11011096  -1.066   0.227   2.928  0.5820 -0.4119  0.7164
  249OL    H10R11097  -1.144   0.281   2.981  1.9803  0.6516  1.7950
  249OL    C11111098  -0.939   0.201   3.004  0.3661 -0.4595  0.1609
  249OL    H11R11099  -0.871   0.284   2.982  0.7657 -0.4632  1.3256
  249OL    H11S11100  -0.889   0.109   2.972  3.3097  1.3211 -0.8406
  249OL    C11211101  -0.984   0.203   3.154 -0.5207  0.9367 -0.3710
  249OL    H12R11102  -1.050   0.118   3.171  1.7625 -0.4623  2.5127
  249OL    H12S11103  -1.018   0.303   3.183 -0.0329  0.9323  0.2574
  249OL    C11311104  -0.861   0.160   3.242  0.0997 -0.1968 -0.1043
  249OL    H13R11105  -0.789   0.241   3.227 -0.1110 -0.0192 -0.1686
  249OL    H13S11106  -0.817   0.065   3.212  1.4807  0.5616 -0.5939
  249OL    C11411107  -0.918   0.151   3.384  0.2871 -0.0690  1.0408
  249OL    H14R11108  -1.009   0.092   3.372  1.1544 -1.1398 -0.8143
  249OL    H14S11109  -0.944   0.253   3.412 -1.0009  0.3766 -1.5077
  249OL    C11511110  -0.817   0.094   3.485 -0.2090  0.0889  0.8471
  249OL    H15R11111  -0.725   0.151   3.471 -0.9584  1.0995 -0.1091
  249OL    H15S11112  -0.790  -0.008   3.457  0.9506  0.6516 -0.1971
  249OL    C11611113  -0.860   0.116   3.632  0.0884 -0.0352  0.8775
  249OL    H16R11114  -0.949   0.058   3.654  1.6833 -2.0286  2.5568
  249OL    H16S11115  -0.885   0.221   3.647  2.1419  0.4624  1.2195
  249OL    C11711116  -0.746   0.083   3.734  0.4230 -0.6191 -0.5253
  249OL    H17R11117  -0.664   0.154   3.738 -1.3655  1.5806 -0.8198
  249OL    H17S11118  -0.701  -0.017   3.728  0.2653 -0.9108  2.1408
  249OL    C11811119  -0.804   0.086   3.873 -0.2721 -0.2277 -0.3911
  249OL    H18R11120  -0.835   0.181   3.919  2.1894 -0.7592  2.7041
  249OL    H18S11121  -0.723   0.066   3.943 -1.8006  3.0731  2.6606
  249OL    H18T11122  -0.887   0.014   3.877 -0.2042 -0.3956 -1.7982
  250PA    C11611123   3.458  -1.009   3.417  0.0790 -0.0963  0.0713
  250PA    H16R11124   3.550  -1.000   3.475 -0.8052  0.0528  1.5019
  250PA    H16S11125   3.388  -0.941   3.466 -1.3042 -2.7296  1.9684
  250PA    H16T11126   3.485  -0.976   3.316 -0.3411 -0.2425 -0.0925
  250PA    C11511127   3.419  -1.157   3.436  0.1714  0.5283  0.1278
  250PA    H15R11128   3.443  -1.187   3.539 -1.1073  1.3952  0.6952
  250PA    H15S11129   3.313  -1.173   3.415  0.6543 -0.1419 -2.0621
  250PA    C11411130   3.494  -1.259   3.342 -0.1883 -0.3611 -0.8685
  250PA    H14R11131   3.461  -1.220   3.246 -4.4880  2.3001  1.4065
  250PA    H14S11132   3.603  -1.250   3.350 -0.2770 -0.1952  0.3400
  250PA    C11311133   3.466  -1.412   3.364  0.6228  0.1990 -0.8014
  250PA    H13R11134   3.480  -1.432   3.471  0.8158 -3.0846 -1.3304
  250PA    H13S11135   3.359  -1.427   3.350  0.3049  0.6612  0.9185
  250PA    C11211136   3.554  -1.517   3.291  0.4016 -0.3172  0.2951
  250PA    H12R11137   3.494  -1.608   3.283 -1.0913  0.5900  0.8051
  250PA    H12S11138   3.564  -1.480   3.189  1.6570 -0.9447  0.1696
  250PA    C11111139   3.702  -1.551   3.337 -0.2015  0.3592 -0.8454
  250PA    H11R11140   3.769  -1.465   3.340  3.3140 -2.1632  0.8451
  250PA    H11S11141   3.687  -1.591   3.437  1.0566 -2.4471 -1.6537
  250PA    C11011142   3.761  -1.654   3.243  0.5571 -0.1268  0.4506
  250PA    H10R11143   3.854  -1.696   3.281 -1.2222 -3.3934  1.6507
  250PA    H10S11144   3.695  -1.739   3.223 -2.3583  2.1055 -0.2119
  250PA     C1911145   3.800  -1.594   3.102  0.3350  0.0707 -0.4767
  250PA     H9R11146   3.704  -1.571   3.054  0.4734  1.9679  0.0779
  250PA     H9S11147   3.857  -1.502   3.119  1.7974 -1.2018  2.0454
  250PA     C1811148   3.869  -1.693   3.006 -0.5266 -1.3404 -0.2257
  250PA     H8R11149   3.807  -1.782   2.992 -1.5455 -0.7446  0.3906
  250PA     H8S11150   3.871  -1.644   2.908  2.2897 -0.7358  0.0448
  250PA     C1711151   4.007  -1.745   3.042  0.0730  0.2393 -0.1986
  250PA     H7R11152   4.064  -1.652   3.035  0.4342 -0.0520 -1.3976
  250PA     H7S11153   4.004  -1.790   3.141  0.8817 -2.2052 -1.2039
  250PA     C1611154   4.073  -1.863   2.959 -0.2351 -0.2573 -0.2110
  250PA     H6R11155   4.164  -1.894   3.010 -0.8306 -0.8817  0.5054
  250PA     H6S11156   4.023  -1.960   2.962  0.1348 -0.7027 -3.6056
  250PA     C1511157   4.089  -1.837   2.804  0.6560  0.1001  0.1630
  250PA     H5R11158   4.064  -1.929   2.749 -2.7870  0.4653  0.8349
  250PA     H5S11159   4.008  -1.772   2.769 -0.4655 -1.1670  0.2700
  250PA     C1411160   4.219  -1.767   2.752  0.5303  0.6444 -0.6294
  250PA     H4R11161   4.204  -1.661   2.773 -0.8737  0.7517 -1.9594
  250PA     H4S11162   4.296  -1.808   2.818  1.7110  1.5696 -1.3779
  250PA     C1311163   4.264  -1.795   2.608 -0.0940 -0.0242  0.5113
  250PA     H3R11164   4.216  -1.718   2.547 -0.8219 -1.1330 -0.3502
  250PA     H3S11165   4.373  -1.784   2.611 -0.3236  2.9595  0.9225
  250PA     C1211166   4.234  -1.937   2.551 -0.4288 -0.1119  0.1812
  250PA     H2R11167   4.286  -2.015   2.608 -0.4033 -0.5498 -0.4304
  250PA     H2S11168   4.130  -1.969   2.560 -0.8098  1.3557  1.2666
  251PC     C1111169   4.276  -1.962   2.417  0.3876 -0.5738 -0.0086
  251PC     O1211170   4.343  -1.887   2.358 -0.7171 -0.0774  0.2020
  251PC     O1111171   4.247  -2.073   2.368  0.1257  0.4078  0.4189
  251PC      C111172   4.265  -2.105   2.227 -0.1826 -0.2189 -0.1580
  251PC      HR11173   4.208  -2.194   2.200 -0.3936 -0.1825  0.1659
  251PC      HS11174   4.226  -2.022   2.167  1.9716  2.2974  1.6623
  251PC      C211175   4.413  -2.137   2.190  0.5710 -0.6381  1.0695
  251PC      HX11176   4.482  -2.058   2.220  0.7375 -1.1306  2.0257
  251PC      C311177   4.428  -2.166   2.036 -0.3584  0.0743  0.1304
  251PC      HA11178   4.527  -2.205   2.014 -1.4538 -3.6916  1.0672
  251PC      HB11179   4.353  -2.238   2.001 -0.1900 -0.5958  1.0929
  251PC     O3111180   4.408  -2.048   1.956  0.4317 -0.0101  0.0683
  251PC     P3111181   4.518  -1.955   1.913 -0.0751  0.0812  0.3131
  251PC     O3211182   4.535  -1.861   2.043 -0.3239  0.6875  0.0500
  251PC     C3111183   4.447  -1.749   2.067  0.2409 -0.1243  0.0654
  251PC     H1A11184   4.354  -1.767   2.012 -0.9975  1.5551  1.4853
  251PC     H1B11185   4.424  -1.759   2.174  1.4499  0.8707  0.4384
  251PC     C3211186   4.530  -1.630   2.024  0.2335 -0.7732  0.5216
  251PC     H2A11187   4.618  -1.616   2.086  0.4144 -0.5785  0.2220
  251PC     H2B11188   4.557  -1.651   1.920 -2.9176 -2.1765 -0.1393
  251PC     N3111189   4.457  -1.500   2.033 -0.0748  0.1841 -0.3196
  251PC     C3311190   4.540  -1.392   1.973  0.2862 -0.5271  0.3125
  251PC     H3A11191   4.548  -1.412   1.866 -1.2294  2.2543 -0.4260
  251PC     H3B11192   4.483  -1.300   1.987  0.4177  0.0033 -2.1187
  251PC     H3C11193   4.636  -1.394   2.024  0.2682 -0.0126  0.3749
  251PC     C3411194   4.334  -1.499   1.952 -0.3264  0.3757  0.0727
  251PC     H4A11195   4.287  -1.401   1.965  2.8779  1.9216  0.7812
  251PC     H4B11196   4.349  -1.520   1.846 -0.6801 -0.7266  0.2285
  251PC     H4C11197   4.274  -1.573   2.006 -0.1536  0.2323  0.0680
  251PC     C3511198   4.421  -1.462   2.174 -0.1933 -0.5299  0.2449
  251PC     H5A11199   4.367  -1.543   2.222 -1.6660 -1.3555 -2.6571
  251PC     H5B11200   4.357  -1.376   2.158 -0.0019 -0.3208  0.5823
  251PC     H5C11201   4.516  -1.427   2.218  1.1827  1.0404 -3.5362
  251PC     O3311202   4.633  -2.042   1.894  0.3253 -0.1060 -0.1115
  251PC     O3411203   4.461  -1.879   1.805 -0.5478  0.2392 -0.2604
  251PC     O2111204   4.453  -2.258   2.263 -0.1586  0.4312 -0.3560
  251PC     C2111205   4.506  -2.256   2.385 -0.6349  0.3417  0.2521
  251PC     O2211206   4.521  -2.157   2.454  0.0119  0.0331 -0.2172
  252OL     C1211207   4.559  -2.396   2.423 -0.7183  0.8037  0.3960
  252OL     H2R11208   4.604  -2.444   2.336 -0.4907  1.4105  0.1736
  252OL     H2S11209   4.472  -2.457   2.449 -1.0569  1.1291  0.0381
  252OL     C1311210   4.650  -2.396   2.545  0.2034 -0.3474 -0.1705
  252OL     H3R11211   4.670  -2.497   2.581  0.9183  0.2328  1.1087
  252OL     H3S11212   4.605  -2.336   2.624  1.1704  1.2929 -0.8179
  252OL     C1411213   4.788  -2.335   2.517 -0.0975  0.6154  0.2230
  252OL     H4R11214   4.779  -2.258   2.440 -0.8936  0.1013 -0.2170
  252OL     H4S11215   4.845  -2.411   2.463 -0.6365  0.7277 -0.5320
  252OL     C1511216   4.875  -2.287   2.632 -0.0024  0.1577 -0.1693
  252OL     H5R11217   4.816  -2.215   2.688  0.0706  0.8598 -0.9867
  252OL     H5S11218   4.957  -2.226   2.595  0.2180 -0.2956 -0.4347
  252OL     C1611219   4.922  -2.398   2.723  0.1258 -0.2243  0.3923
  252OL     H6R11220   4.980  -2.472   2.667  0.7442  0.5106  0.0515
  252OL     H6S11221   4.837  -2.456   2.760 -0.3366  0.8837  1.1159
  252OL     C1711222   4.993  -2.342   2.852  0.4702  0.2564 -0.3545
  252OL     H7R11223   4.925  -2.273   2.903  1.8068  0.5592  1.1051
  252OL     H7S11224   5.072  -2.274   2.819 -0.4322  0.5908 -1.8679
  252OL     C1811225   5.038  -2.460   2.945 -0.0442  0.4818 -0.0783
  252OL     H8R11226   5.086  -2.409   3.029 -0.3734  2.5048 -1.0375
  252OL     H8S11227   5.105  -2.520   2.884 -0.5134 -0.7307  0.5801
  252OL     C1911228   4.926  -2.555   2.987 -0.2031 -0.8057 -0.8956
  252OL     H9R11229   4.852  -2.574   2.908 -0.3173  1.7999 -1.5097
  252OL    C11011230   4.908  -2.597   3.108  0.3832  0.1744 -0.4374
  252OL    H10R11231   4.824  -2.664   3.125 -0.2474  0.9180 -0.5303
  252OL    C11111232   5.001  -2.578   3.225  0.4048  0.2767  0.5283
  252OL    H11R11233   5.098  -2.543   3.190  0.9351 -1.1400  0.5298
  252OL    H11S11234   5.015  -2.679   3.264  0.6737 -0.6825 -1.8528
  252OL    C11211235   4.941  -2.485   3.328 -0.2634  0.1560 -0.3816
  252OL    H12R11236   5.006  -2.468   3.414  1.2216 -0.2956 -1.3778
  252OL    H12S11237   4.850  -2.532   3.366  0.5304 -3.2909 -2.3320
  252OL    C11311238   4.902  -2.345   3.277 -0.2493  0.3561  0.0006
  252OL    H13R11239   4.837  -2.348   3.188  0.1768 -0.3282 -0.2937
  252OL    H13S11240   4.990  -2.298   3.233  0.3098 -1.0585 -0.4363
  252OL    C11411241   4.841  -2.242   3.371 -0.5676 -0.4751  0.5346
  252OL    H14R11242   4.795  -2.169   3.305  1.4690  0.0469 -0.3855
  252OL    H14S11243   4.920  -2.180   3.414 -1.0604  0.6905 -0.2025
  252OL    C11511244   4.741  -2.293   3.477 -1.2408  0.7945 -0.3218
  252OL    H15R11245   4.793  -2.355   3.549  0.3662 -0.0528 -2.1256
  252OL    H15S11246   4.671  -2.359   3.425  1.2726 -0.5476 -2.2091
  252OL    C11611247   4.677  -2.179   3.544 -0.6720  0.4717 -0.5860
  252OL    H16R11248   4.751  -2.107   3.582  0.0660 -1.1010  1.1263
  252OL    H16S11249   4.620  -2.209   3.632 -2.7184  1.5314 -1.4701
  252OL    C11711250   4.583  -2.099   3.463  0.0233  0.2626 -0.3522
  252OL    H17R11251   4.506  -2.153   3.407  0.6040  0.0061 -0.9188
  252OL    H17S11252   4.638  -2.043   3.387  0.2095  2.2487  1.1659
  252OL    C11811253   4.515  -1.994   3.556 -0.5575 -0.2669  0.2332
  252OL    H18R11254   4.482  -1.917   3.487  0.6697  0.5240  0.4891
  252OL    H18S11255   4.592  -1.945   3.616 -0.8714  1.8374 -0.9951
  252OL    H18T11256   4.425  -2.027   3.607 -1.0399  0.7637  0.0768
  253PA    C11611257   2.612   6.693   4.124 -0.0303  0.4343  0.4108
  253PA    H16R11258   2.535   6.616   4.133  0.2115 -0.0286 -1.1265
  253PA    H16S11259   2.598   6.742   4.027 -0.5894  1.1843  0.8561
  253PA    H16T11260   2.595   6.771   4.198  2.0978  1.0255  0.3274
  253PA    C11511261   2.753   6.633   4.132  0.0587 -0.2207  0.4768
  253PA    H15R11262   2.827   6.704   4.170 -0.8348 -0.4751  2.9426
  253PA    H15S11263   2.759   6.548   4.200 -1.0429  1.2455  2.5314
  253PA    C11411264   2.805   6.597   3.989 -0.7691  0.3796 -0.0477
  253PA    H14R11265   2.790   6.673   3.911 -1.1514 -2.7546 -3.2922
  253PA    H14S11266   2.914   6.588   3.997 -0.7783  0.7475  0.5576
  253PA    C11311267   2.739   6.469   3.934  0.0163  1.2033  0.4594
  253PA    H13R11268   2.745   6.382   3.999 -0.2836 -0.4345 -1.6094
  253PA    H13S11269   2.631   6.485   3.922 -0.7554 -0.9081  3.5821
  253PA    C11211270   2.787   6.428   3.791 -0.1605 -0.5521 -1.0638
  253PA    H12R11271   2.790   6.521   3.734  1.2386  0.5112  0.6325
  253PA    H12S11272   2.881   6.373   3.787 -0.7347 -1.5107 -2.0023
  253PA    C11111273   2.678   6.343   3.721 -0.3740 -0.1195  0.5704
  253PA    H11R11274   2.667   6.249   3.776  1.4755 -1.2584 -0.8949
  253PA    H11S11275   2.584   6.397   3.708 -0.0856  0.7209  1.8198
  253PA    C11011276   2.727   6.297   3.580  0.0213  0.0395 -1.3429
  253PA    H10R11277   2.833   6.271   3.580  0.3043  0.6822  2.5819
  253PA    H10S11278   2.663   6.208   3.578  1.1007 -0.7829 -0.3193
  253PA     C1911279   2.709   6.406   3.473  0.1297  0.1302 -0.2826
  253PA     H9R11280   2.605   6.437   3.474  0.7842  2.5951 -0.6896
  253PA     H9S11281   2.778   6.482   3.510  1.2594 -1.3049  0.6521
  253PA     C1811282   2.738   6.368   3.328 -0.2345  0.4702  0.2691
  253PA     H8R11283   2.679   6.282   3.296 -0.8459  0.7940  0.5117
  253PA     H8S11284   2.709   6.447   3.259 -0.0330 -2.2463 -3.2210
  253PA     C1711285   2.886   6.334   3.318 -0.3716  0.0122  0.3391
  253PA     H7R11286   2.940   6.415   3.367 -0.3235 -1.0571  2.1310
  253PA     H7S11287   2.905   6.238   3.367  0.4336 -0.1654 -0.2913
  253PA     C1611288   2.937   6.308   3.171 -0.6978 -0.9743  0.6371
  253PA     H6R11289   2.916   6.387   3.098  0.5677 -0.2224  1.0493
  253PA     H6S11290   3.046   6.308   3.181 -0.7175 -0.7961  0.8577
  253PA     C1511291   2.881   6.170   3.123 -0.2518  0.0415 -0.1778
  253PA     H5R11292   2.908   6.086   3.187 -0.7244 -0.1582 -0.2350
  253PA     H5S11293   2.772   6.168   3.122 -0.3462  2.2847 -1.5724
  253PA     C1411294   2.933   6.125   2.981  0.1637  0.0286 -0.3222
  253PA     H4R11295   3.040   6.147   2.986  0.3155 -0.7928  0.3573
  253PA     H4S11296   2.923   6.017   2.969  2.3938 -0.3328  0.5765
  253PA     C1311297   2.854   6.197   2.866  0.5872  0.5223 -0.2842
  253PA     H3R11298   2.751   6.163   2.854  0.5579  1.2055 -2.3931
  253PA     H3S11299   2.846   6.304   2.885 -1.6223  0.4393 -0.5643
  253PA     C1211300   2.916   6.165   2.731 -0.2750 -0.3079 -0.0202
  253PA     H2R11301   2.898   6.251   2.666  0.2431  1.7184  2.3526
  253PA     H2S11302   3.025   6.172   2.737 -0.3595  4.7637  0.3290
  254PC     C1111303   2.863   6.038   2.663  0.7431  0.6027 -0.3740
  254PC     O1211304   2.817   5.938   2.721  0.4941  0.2693  0.2522
  254PC     O1111305   2.879   6.033   2.529 -0.3680  0.3489 -0.2897
  254PC      C111306   2.834   5.920   2.446 -0.6333  0.9539 -0.1016
  254PC      HR11307   2.915   5.885   2.381 -0.3443  0.8547  0.3084
  254PC      HS11308   2.820   5.831   2.508 -2.4070  0.8623 -0.6047
  254PC      C211309   2.708   5.953   2.369  0.1686 -0.3509  0.4496
  254PC      HX11310   2.665   5.871   2.310 -0.9465  0.9792 -0.6590
  254PC      C311311   2.745   6.079   2.288  0.2904  0.2572  0.0076
  254PC      HA11312   2.780   6.162   2.350 -1.2272 -0.7665  2.3726
  254PC      HB11313   2.834   6.061   2.226  0.9655  0.4258  0.9159
  254PC     O3111314   2.632   6.126   2.216  0.6968 -0.1847 -0.1365
  254PC     P3111315   2.602   6.073   2.065 -0.0680 -0.0717 -0.0621
  254PC     O3211316   2.677   6.179   1.976  0.5088 -0.0159  0.5960
  254PC     C3111317   2.816   6.171   1.964 -0.2143  0.4674  0.9149
  254PC     H1A11318   2.855   6.196   2.063 -0.1801 -0.2764  1.0953
  254PC     H1B11319   2.850   6.075   1.925  1.0388  0.7345  1.3104
  254PC     C3211320   2.863   6.278   1.862 -0.1366 -0.7926 -0.5403
  254PC     H2A11321   2.807   6.370   1.880  2.0785  0.4315  0.5583
  254PC     H2B11322   2.968   6.309   1.869 -0.1608 -0.7605 -0.3050
  254PC     N3111323   2.834   6.253   1.715  0.6095  0.1073 -0.0791
  254PC     C3311324   2.917   6.342   1.636 -0.3073 -0.5800  1.0654
  254PC     H3A11325   2.908   6.331   1.528  0.4734  2.8411  0.5130
  254PC     H3B11326   2.893   6.444   1.667 -0.1942 -0.0306 -0.5697
  254PC     H3C11327   3.021   6.325   1.667 -0.0867 -0.9406  0.1360
  254PC     C3411328   2.891   6.124   1.674  0.7266 -0.0680 -0.5476
  254PC     H4A11329   2.880   6.119   1.566  0.2205 -0.9075 -0.4648
  254PC     H4B11330   2.997   6.111   1.698  0.7122 -3.6306 -1.8316
  254PC     H4C11331   2.832   6.048   1.726  0.8890  1.4922  2.1215
  254PC     C3511332   2.690   6.269   1.676 -0.2268 -0.2685 -0.5041
  254PC     H5A11333   2.640   6.353   1.725  0.6203 -0.1049  0.1055
  254PC     H5B11334   2.638   6.177   1.703 -0.2001 -0.2219 -0.2912
  254PC     H5C11335   2.689   6.279   1.568  0.4925  0.5412 -0.4450
  254PC     O3311336   2.671   5.946   2.049 -0.5517 -0.0624  0.0985
  254PC     O3411337   2.457   6.084   2.037 -0.0362  0.9319 -0.3275
  254PC     O2111338   2.609   5.993   2.467  0.0088 -0.4596 -0.0254
  254PC     C2111339   2.534   5.902   2.532  0.4290  0.9118 -0.8097
  254PC     O2211340   2.557   5.780   2.530  0.9476 -0.1243  0.5814
  255OL     C1211341   2.430   5.970   2.620 -0.3249  0.0893 -0.2349
  255OL     H2R11342   2.335   5.987   2.571  0.7107  1.5789 -1.8406
  255OL     H2S11343   2.477   6.062   2.656 -1.6009  0.4248  0.6219
  255OL     C1311344   2.406   5.882   2.745 -0.6942 -0.4198 -0.2680
  255OL     H3R11345   2.385   5.781   2.710  0.3141 -0.0086 -2.1778
  255OL     H3S11346   2.321   5.921   2.801 -1.3526 -0.7548 -1.0314
  255OL     C1411347   2.527   5.872   2.849  0.1775  0.1785  0.5420
  255OL     H4R11348   2.617   5.840   2.798 -0.4553 -1.6748  0.5315
  255OL     H4S11349   2.513   5.789   2.918  0.5368 -0.1407  0.2309
  255OL     C1511350   2.545   5.996   2.935  0.0451 -0.1233  0.3923
  255OL     H5R11351   2.551   6.084   2.871 -0.0876 -0.8914 -0.6953
  255OL     H5S11352   2.642   5.995   2.985 -0.2758  1.1138  1.0915
  255OL     C1611353   2.435   6.002   3.037  1.2884  0.1493  0.1438
  255OL     H6R11354   2.444   5.916   3.104 -1.0223  0.7056  1.2940
  255OL     H6S11355   2.335   5.984   2.996  0.5502  0.7219  1.6332
  255OL     C1711356   2.436   6.134   3.123 -0.1444  0.0452  0.0448
  255OL     H7R11357   2.444   6.218   3.053  0.3185  0.4680  0.6049
  255OL     H7S11358   2.523   6.142   3.188  0.5644 -0.5598 -0.8080
  255OL     C1811359   2.305   6.141   3.205 -0.5042 -0.5877  0.1868
  255OL     H8R11360   2.212   6.134   3.148 -0.6503 -2.1690  0.5736
  255OL     H8S11361   2.290   6.238   3.252 -1.1969 -0.6410  0.0893
  255OL     C1911362   2.300   6.031   3.305  0.1936 -0.6506  0.6217
  255OL     H9R11363   2.276   5.934   3.261 -3.6211  1.0967 -1.6433
  255OL    C11011364   2.312   6.035   3.439  0.0043  0.7165  0.3652
  255OL    H10R11365   2.288   5.944   3.493 -0.8549  1.2338  0.8711
  255OL    C11111366   2.310   6.154   3.524 -0.4922 -0.2660  0.1463
  255OL    H11R11367   2.378   6.233   3.492 -0.3416 -0.2920  0.3983
  255OL    H11S11368   2.339   6.114   3.622 -0.6187 -0.1069  0.2490
  255OL    C11211369   2.160   6.198   3.538 -0.1105 -0.1628  0.0501
  255OL    H12R11370   2.110   6.105   3.562  0.9468 -1.7315 -3.2005
  255OL    H12S11371   2.142   6.253   3.445 -1.1375  0.3389  0.5279
  255OL    C11311372   2.153   6.314   3.647 -0.1223 -0.6587 -0.5751
  255OL    H13R11373   2.198   6.406   3.610  0.2995 -1.2409 -1.5506
  255OL    H13S11374   2.214   6.279   3.730  0.9857  2.0826 -0.1072
  255OL    C11411375   2.009   6.354   3.681 -0.5436 -0.0426  0.4645
  255OL    H14R11376   1.974   6.419   3.601  2.3387  0.9643 -0.0837
  255OL    H14S11377   2.009   6.412   3.773  2.7942 -0.7983  1.0538
  255OL    C11511378   1.907   6.237   3.696  0.1547 -0.2576  0.3638
  255OL    H15R11379   1.896   6.175   3.607 -0.4743 -0.4033  0.5294
  255OL    H15S11380   1.805   6.277   3.707  0.6094  1.7984 -1.9448
  255OL    C11611381   1.942   6.158   3.822  0.4183 -0.1109 -0.0425
  255OL    H16R11382   2.051   6.155   3.832  0.3912 -0.7823  0.1230
  255OL    H16S11383   1.909   6.055   3.834 -0.9876  0.3301  0.1212
  255OL    C11711384   1.885   6.232   3.948  0.0770  0.0014  0.2635
  255OL    H17R11385   1.780   6.208   3.962 -0.2757  0.4262 -1.4763
  255OL    H17S11386   1.897   6.341   3.939 -0.5987  0.1181  0.7155
  255OL    C11811387   1.953   6.193   4.078  0.0908  0.0538 -0.1856
  255OL    H18R11388   1.960   6.084   4.086 -3.0289 -0.2212 -0.1591
  255OL    H18S11389   1.895   6.232   4.162 -1.4316  0.1950 -1.2616
  255OL    H18T11390   2.051   6.240   4.085  0.1082 -0.0441  0.2818
  256PA    C11611391   7.112   0.954   3.561 -0.1701 -0.6789  0.6414
  256PA    H16R11392   7.015   0.998   3.536  0.7947  1.2485  0.1232
  256PA    H16S11393   7.167   1.043   3.592  0.0030  0.1086 -1.7360
  256PA    H16T11394   7.096   0.871   3.630 -0.8554 -1.6751 -0.6904
  256PA    C11511395   7.195   0.913   3.439 -0.0948  0.4602 -0.4913
  256PA    H15R11396   7.212   1.003   3.379  0.2785  0.3186 -0.5995
  256PA    H15S11397   7.295   0.880   3.470 -0.4694  0.2411  0.5318
  256PA    C11411398   7.123   0.803   3.360  0.4584  0.4417  0.6746
  256PA    H14R11399   7.114   0.711   3.417 -1.2681  0.0690 -0.1250
  256PA    H14S11400   7.023   0.844   3.347  0.9263  1.4620  0.1151
  256PA    C11311401   7.179   0.763   3.223  0.2815  0.5016  0.4463
  256PA    H13R11402   7.287   0.744   3.223  0.4956  1.5903 -0.4188
  256PA    H13S11403   7.141   0.663   3.200 -0.3550  0.6415  0.8817
  256PA    C11211404   7.171   0.855   3.099 -0.0046 -0.0644  0.0900
  256PA    H12R11405   7.068   0.877   3.068 -0.2101 -2.4707 -1.1535
  256PA    H12S11406   7.226   0.947   3.119 -1.0748  0.5153  0.4816
  256PA    C11111407   7.244   0.790   2.973  0.2599 -0.0423 -0.1262
  256PA    H11R11408   7.350   0.788   2.998  0.6471  1.9017 -1.3957
  256PA    H11S11409   7.204   0.691   2.951  0.1041  0.0003 -0.0347
  256PA    C11011410   7.224   0.877   2.847 -0.6212 -0.3601 -0.3290
  256PA    H10R11411   7.124   0.873   2.803  0.2877  1.9253 -2.9107
  256PA    H10S11412   7.241   0.982   2.869  0.9412 -0.1131 -2.4254
  256PA     C1911413   7.304   0.837   2.730 -0.1572  0.0345  0.1455
  256PA     H9R11414   7.410   0.858   2.742  0.0055  1.6425 -2.9466
  256PA     H9S11415   7.295   0.729   2.722  1.6716 -0.1695  0.4731
  256PA     C1811416   7.262   0.906   2.603 -0.1977 -1.0921  0.3771
  256PA     H8R11417   7.154   0.899   2.586 -0.4129  0.9786  0.6203
  256PA     H8S11418   7.274   1.013   2.622 -2.6728 -0.4262 -1.2764
  256PA     C1711419   7.347   0.866   2.476 -0.7856  0.7569 -0.6037
  256PA     H7R11420   7.454   0.866   2.496 -0.4209 -0.3597 -2.3232
  256PA     H7S11421   7.319   0.762   2.462 -0.9388 -0.0573  4.1634
  256PA     C1611422   7.313   0.964   2.367  0.2652  0.1084  0.0591
  256PA     H6R11423   7.209   0.946   2.338  0.0609  1.3160 -0.0059
  256PA     H6S11424   7.331   1.065   2.403  0.0154  0.5228 -0.9293
  256PA     C1511425   7.396   0.941   2.237  0.4994 -0.3832  0.2837
  256PA     H5R11426   7.426   1.038   2.197 -0.4166 -0.3059 -0.2578
  256PA     H5S11427   7.485   0.881   2.259 -0.5119 -2.1224 -0.1311
  256PA     C1411428   7.325   0.845   2.141 -0.2350  1.0726 -0.0829
  256PA     H4R11429   7.307   0.749   2.189  0.1257  2.3539  2.8741
  256PA     H4S11430   7.225   0.884   2.121 -0.0345  0.9664 -1.3617
  256PA     C1311431   7.404   0.811   2.008 -0.3259 -0.2105  0.0564
  256PA     H3R11432   7.500   0.767   2.035 -0.5614 -1.6529 -1.3535
  256PA     H3S11433   7.347   0.734   1.956 -0.8644 -0.1599  0.5621
  256PA     C1211434   7.431   0.937   1.918  0.4210 -0.3325 -0.2360
  256PA     H2R11435   7.459   1.022   1.980 -1.1095 -1.4249  2.0592
  256PA     H2S11436   7.522   0.917   1.861  0.7395 -0.7468  0.4081
  257PC     C1111437   7.307   0.984   1.839  0.3804 -0.8957 -0.0763
  257PC     O1211438   7.194   0.943   1.858 -0.2712 -0.0531  0.3578
  257PC     O1111439   7.336   1.074   1.746 -0.0859 -0.1974 -0.1152
  257PC      C111440   7.230   1.132   1.667  0.1637 -0.0215  0.4371
  257PC      HR11441   7.252   1.145   1.560 -2.4254  1.1517 -0.0475
  257PC      HS11442   7.149   1.060   1.652  0.0829  0.3422 -1.0971
  257PC      C211443   7.171   1.262   1.725  0.2845 -0.2436  0.1579
  257PC      HX11444   7.078   1.287   1.673  1.0883  0.4779 -0.9863
  257PC      C311445   7.274   1.375   1.709  0.7239 -0.5154 -0.6454
  257PC      HA11446   7.260   1.465   1.771 -3.3522  0.1515 -2.2175
  257PC      HB11447   7.372   1.330   1.721  0.9597  0.1254 -0.0590
  257PC     O3111448   7.268   1.416   1.569 -0.0170 -0.1408  0.0648
  257PC     P3111449   7.186   1.552   1.533  0.1409 -0.2198  0.1828
  257PC     O3211450   7.304   1.667   1.544  0.6378  0.2212 -0.3356
  257PC     C3111451   7.334   1.728   1.667 -0.2516  0.5940  0.7157
  257PC     H1A11452   7.234   1.753   1.703 -0.5600  1.0146 -0.3937
  257PC     H1B11453   7.375   1.655   1.737 -0.7175  1.5250  2.0018
  257PC     C3211454   7.439   1.836   1.631 -0.3604  0.0210  0.4791
  257PC     H2A11455   7.523   1.785   1.583 -0.7608  1.7512 -2.2894
  257PC     H2B11456   7.398   1.911   1.564  1.1529 -0.5602 -1.1784
  257PC     N3111457   7.495   1.917   1.742 -0.0820 -0.3550 -0.9132
  257PC     C3311458   7.599   2.000   1.689 -0.2381  0.0417  0.4516
  257PC     H3A11459   7.560   2.051   1.601  2.5438  0.3738 -0.6917
  257PC     H3B11460   7.623   2.075   1.764 -1.4632  0.9026  0.0052
  257PC     H3C11461   7.686   1.938   1.667 -1.1831 -2.1120  2.3159
  257PC     C3411462   7.396   2.013   1.806 -0.4235 -0.3528  0.1881
  257PC     H4A11463   7.366   2.080   1.726 -0.3748  1.8324  1.9069
  257PC     H4B11464   7.310   1.962   1.849  0.5357 -3.2994 -1.0731
  257PC     H4C11465   7.442   2.067   1.888  0.7161  2.9396 -2.3956
  257PC     C3511466   7.545   1.838   1.858 -0.0864 -0.0125  0.3025
  257PC     H5A11467   7.467   1.838   1.933 -0.6848  1.1168 -0.2947
  257PC     H5B11468   7.634   1.892   1.892  1.2238  0.1758 -3.0167
  257PC     H5C11469   7.569   1.734   1.833 -0.8795 -0.5290  1.6087
  257PC     O3311470   7.153   1.537   1.390  0.2368 -0.1067  0.4074
  257PC     O3411471   7.078   1.568   1.630  0.3094  0.4133 -0.0426
  257PC     O2111472   7.140   1.241   1.861 -0.3353  0.0050 -0.2208
  257PC     C2111473   7.015   1.189   1.884 -0.2296  0.1863 -0.2996
  257PC     O2211474   6.933   1.167   1.801  0.6360 -0.3576  0.1966
  258OL     C1211475   7.002   1.147   2.027  0.5721 -0.7608 -0.3927
  258OL     H2R11476   7.095   1.167   2.080 -0.2800 -3.0451  2.1783
  258OL     H2S11477   6.982   1.040   2.028  1.2642 -0.9175  1.9632
  258OL     C1311478   6.894   1.219   2.103 -0.3004  0.3924 -0.6273
  258OL     H3R11479   6.803   1.209   2.043 -0.3104 -2.5662 -0.2824
  258OL     H3S11480   6.932   1.319   2.123  1.8883 -0.4390 -0.4545
  258OL     C1411481   6.880   1.146   2.232 -1.3599  0.2209 -0.6340
  258OL     H4R11482   6.977   1.138   2.281 -2.0489 -0.1833  0.7111
  258OL     H4S11483   6.847   1.043   2.217 -0.5882 -0.3005  1.0061
  258OL     C1511484   6.785   1.224   2.322 -0.1288  0.9713  0.4054
  258OL     H5R11485   6.688   1.232   2.271  0.0478 -0.3830 -0.2026
  258OL     H5S11486   6.812   1.329   2.336 -2.2774  1.9922 -2.0820
  258OL     C1611487   6.773   1.150   2.463 -0.0735  0.1121 -1.1106
  258OL     H6R11488   6.860   1.163   2.529 -0.3863  0.4692 -0.7595
  258OL     H6S11489   6.772   1.042   2.450 -1.9357  0.1514 -1.5350
  258OL     C1711490   6.644   1.197   2.535  0.1256 -0.1163  0.1429
  258OL     H7R11491   6.558   1.175   2.471 -0.9997  0.1890  1.4911
  258OL     H7S11492   6.645   1.306   2.547  2.0176 -0.0838 -0.1431
  258OL     C1811493   6.625   1.123   2.667  0.6648  0.3131  0.1924
  258OL     H8R11494   6.627   1.016   2.650 -1.7529  0.6906 -3.6250
  258OL     H8S11495   6.523   1.142   2.703  0.3373 -1.1805  0.0938
  258OL     C1911496   6.733   1.166   2.762 -0.1388 -0.1706  0.3946
  258OL     H9R11497   6.818   1.218   2.718  0.7278 -1.6067  0.3136
  258OL    C11011498   6.720   1.181   2.892  0.0160 -0.0809 -0.1647
  258OL    H10R11499   6.798   1.229   2.951 -0.4007 -2.6119  2.6896
  258OL    C11111500   6.593   1.122   2.960 -0.5117  0.8019  0.2757
  258OL    H11R11501   6.621   1.061   3.046 -2.5397 -0.8745 -0.1665
  258OL    H11S11502   6.549   1.046   2.896 -0.4004 -0.5491  1.7363
  258OL    C11211503   6.502   1.245   3.000  0.0706 -0.1038 -0.5159
  258OL    H12R11504   6.408   1.203   3.036 -0.1261  0.9478  0.2366
  258OL    H12S11505   6.482   1.290   2.903 -0.2764  0.4683 -0.1823
  258OL    C11311506   6.566   1.344   3.099  0.9465 -0.0266  0.2786
  258OL    H13R11507   6.659   1.376   3.050  0.6284  0.3334 -0.0970
  258OL    H13S11508   6.583   1.290   3.192  0.7722 -0.5474  0.0096
  258OL    C11411509   6.485   1.468   3.134  0.1215 -1.2514  0.3326
  258OL    H14R11510   6.386   1.431   3.161 -0.1256 -0.7039  0.1826
  258OL    H14S11511   6.472   1.534   3.048 -0.4073  0.8518  1.9368
  258OL    C11511512   6.537   1.559   3.249  0.2364 -0.2609  0.0170
  258OL    H15R11513   6.641   1.571   3.218 -0.4371 -2.2807 -3.6724
  258OL    H15S11514   6.515   1.510   3.344 -1.9356 -0.5240 -0.5770
  258OL    C11611515   6.471   1.694   3.244  0.0103 -0.5164  0.0323
  258OL    H16R11516   6.364   1.685   3.260 -0.2790  0.7602 -1.0250
  258OL    H16S11517   6.485   1.730   3.141 -2.0201  2.4289  0.6306
  258OL    C11711518   6.527   1.800   3.344 -0.1935  0.3172  0.1417
  258OL    H17R11519   6.635   1.810   3.330 -0.2743  0.1770 -0.6201
  258OL    H17S11520   6.509   1.772   3.448  2.6352 -0.3187  0.5636
  258OL    C11811521   6.465   1.934   3.328  0.3617  0.4794 -0.3399
  258OL    H18R11522   6.360   1.952   3.355  0.5910  1.8010 -0.2731
  258OL    H18S11523   6.495   1.970   3.229  1.5247 -1.7850 -0.8928
  258OL    H18T11524   6.533   1.988   3.393  0.3372 -0.2186  0.2749
  259PA    C11611525   3.026  -0.880   3.818  0.2873  0.5790 -0.0555
  259PA    H16R11526   3.034  -0.849   3.922 -2.7130  1.0986  0.1198
  259PA    H16S11527   3.071  -0.977   3.796 -0.9529 -0.0306 -0.0244
  259PA    H16T11528   2.918  -0.887   3.802  0.4208 -1.7500 -0.3588
  259PA    C11511529   3.081  -0.768   3.732  0.7854  0.9458  0.1140
  259PA    H15R11530   3.016  -0.680   3.726  0.6965  1.0250  1.7351
  259PA    H15S11531   3.169  -0.731   3.786  1.5326 -0.8942  0.2098
  259PA    C11411532   3.105  -0.809   3.587 -0.4138 -0.3087 -0.5348
  259PA    H14R11533   3.197  -0.868   3.584 -0.0979 -0.0219  1.8188
  259PA    H14S11534   3.022  -0.875   3.561 -2.1893  0.6594  2.1957
  259PA    C11311535   3.113  -0.690   3.485  0.4603 -0.6480  0.9805
  259PA    H13R11536   3.047  -0.606   3.509  0.7692  0.0465 -0.4997
  259PA    H13S11537   3.215  -0.652   3.499  0.7651  0.1834 -2.6531
  259PA    C11211538   3.103  -0.721   3.333  0.1346  0.3324  0.1426
  259PA    H12R11539   3.013  -0.779   3.312  1.1132 -0.8604 -0.9993
  259PA    H12S11540   3.091  -0.624   3.284 -2.3925 -1.2110 -2.5929
  259PA    C11111541   3.211  -0.807   3.273  0.4762  0.0141  0.9968
  259PA    H11R11542   3.307  -0.755   3.275  0.4039  0.1603  0.6921
  259PA    H11S11543   3.223  -0.892   3.341  1.9445  0.7701  1.7200
  259PA    C11011544   3.174  -0.860   3.130 -0.7409  0.2271 -0.2424
  259PA    H10R11545   3.088  -0.927   3.129  0.7562 -1.8115 -2.5524
  259PA    H10S11546   3.166  -0.779   3.058 -2.5722  0.1377 -0.1862
  259PA     C1911547   3.291  -0.951   3.089  0.2425  0.6199 -0.0868
  259PA     H9R11548   3.386  -0.906   3.118 -0.1552  1.1448  0.4157
  259PA     H9S11549   3.287  -1.045   3.144 -3.4229  0.5589 -0.2391
  259PA     C1811550   3.307  -0.981   2.944 -0.7581  0.1410  0.2432
  259PA     H8R11551   3.335  -0.892   2.887  3.2080 -2.0551 -1.6380
  259PA     H8S11552   3.390  -1.050   2.927 -2.1151 -2.2446  2.6820
  259PA     C1711553   3.178  -1.035   2.874  0.5937  0.3248  0.3087
  259PA     H7R11554   3.094  -0.971   2.899  0.7377  1.3088 -1.5372
  259PA     H7S11555   3.195  -1.041   2.766  1.6933 -0.2900  0.5057
  259PA     C1611556   3.144  -1.173   2.932 -0.1138  0.2349  0.2985
  259PA     H6R11557   3.150  -1.169   3.041 -1.8806  0.2257  0.4235
  259PA     H6S11558   3.039  -1.190   2.907  0.0453  1.2480 -1.1729
  259PA     C1511559   3.214  -1.295   2.871 -0.4705  0.2082  0.1827
  259PA     H5R11560   3.180  -1.391   2.909 -0.3800 -1.1643 -2.8901
  259PA     H5S11561   3.190  -1.275   2.766 -1.1003  2.8870  0.7611
  259PA     C1411562   3.371  -1.304   2.867 -0.4474  0.0678  0.0860
  259PA     H4R11563   3.413  -1.221   2.810  1.2677 -0.5409  0.4002
  259PA     H4S11564   3.417  -1.309   2.966 -1.7802 -0.1897  0.7173
  259PA     C1311565   3.411  -1.435   2.799 -0.1973 -0.1406  0.1152
  259PA     H3R11566   3.518  -1.455   2.800 -0.2618 -0.4903  0.2839
  259PA     H3S11567   3.364  -1.520   2.849 -0.6477  0.6447  1.0590
  259PA     C1211568   3.370  -1.453   2.649 -0.0083  0.8510 -0.6944
  259PA     H2R11569   3.446  -1.522   2.612 -0.5377  0.9757 -2.0682
  259PA     H2S11570   3.270  -1.493   2.629  0.4326 -1.3308  1.0966
  260PC     C1111571   3.388  -1.324   2.570  0.4216 -0.6008  0.1915
  260PC     O1211572   3.494  -1.262   2.557  0.7434  0.4556 -0.0687
  260PC     O1111573   3.268  -1.275   2.536 -0.0564  0.0181  0.5135
  260PC      C111574   3.248  -1.149   2.465  0.0146  0.8997  0.3452
  260PC      HR11575   3.281  -1.061   2.520  0.8647  1.0311 -0.3759
  260PC      HS11576   3.309  -1.165   2.376 -1.1976 -3.3505  0.0420
  260PC      C211577   3.097  -1.142   2.431 -0.5560 -0.5405 -0.3022
  260PC      HX11578   3.061  -1.237   2.391 -1.0367 -0.8972  0.9422
  260PC      C311579   3.076  -1.026   2.331 -0.7896  0.4652 -0.3513
  260PC      HA11580   2.968  -1.030   2.316 -0.6852 -2.9027 -1.1822
  260PC      HB11581   3.108  -0.937   2.386 -1.8175  0.5337  0.1603
  260PC     O3111582   3.152  -1.041   2.206  0.3918  0.6069 -0.3996
  260PC     P3111583   3.097  -1.124   2.086  0.3091 -0.4182  0.0732
  260PC     O3211584   3.141  -1.269   2.127 -0.0413  0.5958  0.3920
  260PC     C3111585   3.268  -1.327   2.098  0.0556 -0.6182 -0.7258
  260PC     H1A11586   3.296  -1.296   1.996  1.3815  1.8006  0.2707
  260PC     H1B11587   3.339  -1.279   2.166 -1.1718  2.3719 -1.4071
  260PC     C3211588   3.267  -1.477   2.112  0.3554  0.0569  0.2972
  260PC     H2A11589   3.362  -1.516   2.076  0.2021  0.2659 -0.3670
  260PC     H2B11590   3.248  -1.506   2.215 -0.6870  2.7273  0.9348
  260PC     N3111591   3.162  -1.551   2.034  0.6320  0.0280  0.5655
  260PC     C3311592   3.193  -1.695   2.047  0.4471  0.3002  0.3119
  260PC     H3A11593   3.113  -1.754   2.004  0.1088  1.3227 -0.5046
  260PC     H3B11594   3.289  -1.701   1.994  1.4472 -0.2753  2.0991
  260PC     H3C11595   3.199  -1.714   2.154 -1.1165 -1.3301  0.1507
  260PC     C3411596   3.017  -1.542   2.085 -0.5593  0.1041  0.4579
  260PC     H4A11597   2.946  -1.600   2.026 -0.8067 -0.2721  1.1152
  260PC     H4B11598   3.019  -1.603   2.175  3.0054 -0.0990  0.3924
  260PC     H4C11599   2.994  -1.440   2.114 -0.1349 -0.3513  2.5328
  260PC     C3511600   3.169  -1.531   1.889  0.4304  0.0958  0.1411
  260PC     H5A11601   3.271  -1.548   1.855  0.2189 -1.0514  0.0385
  260PC     H5B11602   3.147  -1.424   1.880 -2.1269 -0.2802  0.9986
  260PC     H5C11603   3.095  -1.589   1.834  0.4658 -0.5670  0.7758
  260PC     O3311604   2.951  -1.115   2.090 -0.6545  0.0790  0.2792
  260PC     O3411605   3.173  -1.082   1.970  0.1668 -0.1430  0.5819
  260PC     O2111606   3.019  -1.111   2.551 -0.2798 -0.6437  0.3202
  260PC     C2111607   2.929  -1.203   2.595 -0.1171  0.4362 -0.5330
  260PC     O2211608   2.924  -1.316   2.554 -0.0077 -0.4740  0.8109
  261OL     C1211609   2.842  -1.152   2.708  0.4999 -0.2892 -0.2545
  261OL     H2R11610   2.779  -1.073   2.666  1.9327 -0.7554 -3.6171
  261OL     H2S11611   2.908  -1.097   2.775  0.7493 -1.7265  0.7365
  261OL     C1311612   2.768  -1.261   2.781 -0.3965 -0.2339 -0.5204
  261OL     H3R11613   2.841  -1.318   2.839 -0.7072  0.7639  0.8999
  261OL     H3S11614   2.725  -1.329   2.707  0.8892 -0.7783 -0.8043
  261OL     C1411615   2.661  -1.204   2.877  0.4297  1.2413  0.2584
  261OL     H4R11616   2.585  -1.280   2.897 -1.3552  2.7616 -0.5026
  261OL     H4S11617   2.595  -1.144   2.815 -0.3042  0.0505 -0.1354
  261OL     C1511618   2.720  -1.131   2.998  0.0448 -0.4586  1.1190
  261OL     H5R11619   2.767  -1.039   2.965  0.0020 -1.8427 -3.4833
  261OL     H5S11620   2.804  -1.193   3.031  0.6641  0.1572  0.7079
  261OL     C1611621   2.620  -1.088   3.104 -0.2294  0.5942  0.0087
  261OL     H6R11622   2.593  -1.174   3.165 -1.7813  0.4324 -0.8378
  261OL     H6S11623   2.530  -1.041   3.063  0.1711  0.8969 -0.5395
  261OL     C1711624   2.680  -0.991   3.212  0.2045 -0.1387  0.2801
  261OL     H7R11625   2.722  -0.903   3.162  0.1431 -0.8331 -1.0487
  261OL     H7S11626   2.763  -1.040   3.264  1.0264  0.3793 -0.5170
  261OL     C1811627   2.584  -0.945   3.322 -0.4103 -0.2766 -0.1570
  261OL     H8R11628   2.544  -1.024   3.385  0.4971 -1.2200 -0.7327
  261OL     H8S11629   2.502  -0.898   3.268  0.8153 -2.3782 -4.2885
  261OL     C1911630   2.649  -0.841   3.413 -0.8192  0.2336  0.3552
  261OL     H9R11631   2.635  -0.737   3.382 -1.4318 -0.3410 -1.4185
  261OL    C11011632   2.723  -0.868   3.522 -0.1459 -0.0725 -0.5184
  261OL    H10R11633   2.766  -0.783   3.575 -0.7341 -0.2000  0.1772
  261OL    C11111634   2.737  -1.004   3.575 -0.8186  0.4110 -1.2704
  261OL    H11R11635   2.824  -1.002   3.641 -0.4672  0.2055 -1.7241
  261OL    H11S11636   2.753  -1.077   3.496 -0.7637 -1.4213  0.3754
  261OL    C11211637   2.625  -1.039   3.676 -0.3271 -0.6338  0.1857
  261OL    H12R11638   2.535  -1.016   3.618 -1.7371 -1.2029  2.0082
  261OL    H12S11639   2.633  -0.967   3.758  1.8150  0.4979 -0.9560
  261OL    C11311640   2.613  -1.188   3.713 -0.1074 -0.4429 -0.4674
  261OL    H13R11641   2.579  -1.236   3.621 -0.5592 -2.4067  0.6688
  261OL    H13S11642   2.519  -1.213   3.762 -0.7338 -1.0930 -1.9364
  261OL    C11411643   2.730  -1.256   3.791 -0.6653 -0.2120 -0.3309
  261OL    H14R11644   2.825  -1.260   3.736 -0.4099 -1.1715  0.1614
  261OL    H14S11645   2.715  -1.362   3.811 -1.3038  0.0171  0.4306
  261OL    C11511646   2.775  -1.193   3.923 -0.0053 -0.1046  0.1679
  261OL    H15R11647   2.839  -1.109   3.893  4.1317 -1.9586  2.7934
  261OL    H15S11648   2.845  -1.263   3.970 -0.4173 -1.2952 -0.9377
  261OL    C11611649   2.674  -1.158   4.033 -0.2319 -0.3002  0.5267
  261OL    H16R11650   2.602  -1.091   3.987 -0.3176  0.2809  1.4720
  261OL    H16S11651   2.729  -1.103   4.110  1.8360 -1.7507  0.1816
  261OL    C11711652   2.596  -1.274   4.102 -0.7560 -0.1645 -0.5122
  261OL    H17R11653   2.666  -1.355   4.123 -0.3943 -0.1303 -1.5465
  261OL    H17S11654   2.509  -1.304   4.044 -1.0450  1.5517 -1.0244
  261OL    C11811655   2.553  -1.231   4.243  0.8015 -1.3633 -0.1188
  261OL    H18R11656   2.639  -1.221   4.310  0.9814 -1.6829 -0.2992
  261OL    H18S11657   2.473  -1.299   4.272  0.3667 -1.6010 -1.7877
  261OL    H18T11658   2.503  -1.135   4.229  1.2309 -1.2582 -0.9297
  262PA    C11611659   2.042   7.685   3.872  0.6699  0.0543  0.6447
  262PA    H16R11660   1.965   7.657   3.800 -0.7626  2.1833  1.2662
  262PA    H16S11661   2.018   7.786   3.905  0.4976 -0.8597  3.5827
  262PA    H16T11662   2.041   7.616   3.957  1.3529 -0.2126  0.4429
  262PA    C11511663   2.175   7.672   3.806  0.4346  0.6046  0.3989
  262PA    H15R11664   2.254   7.701   3.876  0.4625  0.7381  0.3122
  262PA    H15S11665   2.203   7.568   3.789 -0.6444  0.3132  0.3401
  262PA    C11411666   2.174   7.750   3.676  0.1729  0.4859 -0.1859
  262PA    H14R11667   2.275   7.750   3.635  0.0111 -1.8205 -0.7128
  262PA    H14S11668   2.110   7.696   3.607 -0.0989 -2.0794  1.9124
  262PA    C11311669   2.136   7.901   3.695 -0.0753 -0.2151 -0.2981
  262PA    H13R11670   2.028   7.914   3.711 -0.0119  1.5960 -1.0736
  262PA    H13S11671   2.188   7.942   3.781  1.3461 -3.1894  0.3847
  262PA    C11211672   2.154   7.984   3.568  0.5387 -0.0906  0.2455
  262PA    H12R11673   2.143   8.090   3.590  1.5235  0.1755 -0.4796
  262PA    H12S11674   2.258   7.972   3.538  0.3633 -0.9037 -0.0675
  262PA    C11111675   2.051   7.960   3.454 -0.6136  0.4085 -0.3780
  262PA    H11R11676   2.052   7.852   3.438 -1.0437  0.4388 -0.6201
  262PA    H11S11677   1.948   7.986   3.482 -0.5252  0.3414  0.0147
  262PA    C11011678   2.085   8.038   3.321 -0.6291 -0.2432 -0.1586
  262PA    H10R11679   1.995   8.034   3.260 -1.0056 -1.7959  0.4544
  262PA    H10S11680   2.103   8.146   3.333 -0.6292 -0.3164  0.5663
  262PA     C1911681   2.200   7.972   3.250 -0.2537 -0.0382 -0.2085
  262PA     H9R11682   2.284   7.977   3.320 -0.7006  0.7525  0.2912
  262PA     H9S11683   2.167   7.871   3.224 -0.1735 -0.4454  1.1838
  262PA     C1811684   2.243   8.049   3.119 -0.4417  0.2004 -0.7493
  262PA     H8R11685   2.156   8.054   3.054 -0.7252 -0.2709 -0.4116
  262PA     H8S11686   2.271   8.153   3.138 -3.0378  1.3320 -2.6161
  262PA     C1711687   2.364   7.985   3.057 -0.2597  0.1365  0.0116
  262PA     H7R11688   2.450   7.993   3.124  0.4507 -2.6149 -0.4645
  262PA     H7S11689   2.333   7.881   3.041 -0.1252 -0.0456  0.8481
  262PA     C1611690   2.405   8.034   2.919 -0.0002 -0.1539 -0.2340
  262PA     H6R11691   2.322   8.027   2.848 -0.0669  3.6079 -0.7099
  262PA     H6S11692   2.435   8.139   2.925  2.6130 -0.9108  1.5533
  262PA     C1511693   2.524   7.948   2.860  0.4524 -0.0896 -0.6898
  262PA     H5R11694   2.603   7.945   2.935  1.0587 -2.8569 -1.3457
  262PA     H5S11695   2.479   7.849   2.849 -0.3007 -0.1231  1.9649
  262PA     C1411696   2.563   7.999   2.727  0.3545 -0.5238  0.2670
  262PA     H4R11697   2.473   8.004   2.664  2.9179 -1.3151 -3.8275
  262PA     H4S11698   2.595   8.103   2.741 -2.2024  0.6569 -1.7578
  262PA     C1311699   2.669   7.921   2.653  0.3843  0.1857 -0.1818
  262PA     H3R11700   2.768   7.936   2.697  0.4542  3.1795 -1.1508
  262PA     H3S11701   2.644   7.815   2.661 -1.5802  0.7145  1.9060
  262PA     C1211702   2.677   7.974   2.506 -0.1859 -0.2994  0.7963
  262PA     H2R11703   2.582   8.016   2.473  0.9200 -0.0779 -2.4403
  262PA     H2S11704   2.752   8.054   2.502  1.2715 -1.6815 -1.4631
  263PC     C1111705   2.721   7.861   2.422 -0.0599  0.2199  0.2401
  263PC     O1211706   2.641   7.773   2.380 -0.6006 -0.3393  0.1551
  263PC     O1111707   2.850   7.861   2.375  0.4549 -0.6402 -0.1360
  263PC      C111708   2.878   7.755   2.276  0.6046 -0.8421  0.5666
  263PC      HR11709   2.854   7.657   2.319 -3.7069 -0.9815 -1.5559
  263PC      HS11710   2.803   7.765   2.197 -2.4333 -1.4563  3.1439
  263PC      C211711   3.027   7.748   2.234 -0.6875  0.1229 -0.1218
  263PC      HX11712   3.058   7.849   2.204  0.8422 -0.0045  0.9090
  263PC      C311713   3.051   7.645   2.120 -0.5304 -0.7914 -0.8799
  263PC      HA11714   3.153   7.654   2.082 -0.5756  0.7442 -0.7244
  263PC      HB11715   3.033   7.544   2.158 -0.7959 -0.9954 -1.5370
  263PC     O3111716   2.960   7.656   2.018 -0.1849 -0.2832  0.5307
  263PC     P3111717   2.985   7.764   1.893 -0.2889 -0.6151 -0.2741
  263PC     O3211718   2.929   7.897   1.964 -0.4934  0.2281 -0.3456
  263PC     C3111719   2.793   7.934   1.943  0.1789  0.0627 -0.1164
  263PC     H1A11720   2.737   7.841   1.933  0.4978 -0.4043  1.8913
  263PC     H1B11721   2.760   7.992   2.030 -2.5556 -0.1316 -0.9345
  263PC     C3211722   2.778   8.026   1.817 -0.2120 -0.3638 -0.0652
  263PC     H2A11723   2.806   7.966   1.730 -0.4735  0.7626 -0.9507
  263PC     H2B11724   2.677   8.067   1.813 -0.0240  0.1307  0.1475
  263PC     N3111725   2.872   8.146   1.790 -0.1169  0.5321 -0.6584
  263PC     C3311726   2.810   8.238   1.691 -0.4145  0.2492 -0.3976
  263PC     H3A11727   2.782   8.177   1.606  2.4959 -1.5550 -0.1843
  263PC     H3B11728   2.726   8.291   1.738  0.2779  0.2875  0.8374
  263PC     H3C11729   2.888   8.306   1.656  0.1665 -1.0564 -1.7341
  263PC     C3411730   2.896   8.213   1.919  0.0845 -0.2314  0.2006
  263PC     H4A11731   2.967   8.154   1.978  2.0775  0.9202 -0.9674
  263PC     H4B11732   2.933   8.314   1.903  0.5949 -0.3864  0.3891
  263PC     H4C11733   2.801   8.231   1.969  0.9719  1.3251  1.4131
  263PC     C3511734   3.008   8.101   1.744  0.3044 -0.1381 -0.1195
  263PC     H5A11735   2.999   8.070   1.640  0.7254 -0.9193  0.0676
  263PC     H5B11736   3.042   8.023   1.813 -0.8334 -0.2225  0.3566
  263PC     H5C11737   3.066   8.193   1.743 -1.5285  1.0759  1.1327
  263PC     O3311738   3.135   7.781   1.866  0.5562  0.4451 -0.6390
  263PC     O3411739   2.897   7.734   1.781 -0.2314  0.3776 -0.6458
  263PC     O2111740   3.117   7.710   2.346 -0.2908  0.2013 -0.2624
  263PC     C2111741   3.246   7.753   2.352 -0.0789  0.9911 -0.4731
  263PC     O2211742   3.283   7.815   2.258 -0.7431  0.3383 -0.2051
  264OL     C1211743   3.330   7.718   2.484 -0.1578 -0.3805  0.2742
  264OL     H2R11744   3.426   7.769   2.475  0.1087 -1.0790 -1.0395
  264OL     H2S11745   3.335   7.609   2.486 -1.9081 -0.6936 -3.6581
  264OL     C1311746   3.266   7.768   2.610 -1.0652 -0.2137  0.8980
  264OL     H3R11747   3.175   7.709   2.624 -1.3636 -0.0139 -0.1186
  264OL     H3S11748   3.241   7.874   2.605 -3.0113 -0.6868 -0.8425
  264OL     C1411749   3.359   7.744   2.726 -1.0185 -0.4644 -0.4379
  264OL     H4R11750   3.454   7.796   2.715 -0.4158 -1.5267 -0.3989
  264OL     H4S11751   3.385   7.638   2.728 -0.2951 -0.2853  0.4024
  264OL     C1511752   3.286   7.789   2.855 -0.1337 -0.6626 -0.3089
  264OL     H5R11753   3.204   7.719   2.874  1.7891 -2.6784  1.1083
  264OL     H5S11754   3.250   7.891   2.845  1.8848  0.1190  0.0242
  264OL     C1611755   3.390   7.791   2.976 -0.1319  0.4808  0.1382
  264OL     H6R11756   3.485   7.838   2.951  1.2455 -1.4559  1.4497
  264OL     H6S11757   3.430   7.693   3.004 -0.6268  0.0561 -0.5846
  264OL     C1711758   3.338   7.861   3.105 -1.0303 -0.0495  0.2037
  264OL     H7R11759   3.332   7.970   3.100 -2.2356  0.0843  2.9721
  264OL     H7S11760   3.408   7.842   3.186 -0.4635 -2.0154 -0.6849
  264OL     C1811761   3.203   7.805   3.153 -0.0465 -0.1622 -0.1755
  264OL     H8R11762   3.138   7.795   3.066  0.5984 -0.5178 -0.6168
  264OL     H8S11763   3.162   7.880   3.222  0.2783 -0.7939  0.7325
  264OL     C1911764   3.212   7.671   3.214 -1.0005 -0.5036  0.1215
  264OL     H9R11765   3.250   7.598   3.143 -2.1625  0.1791 -1.2366
  264OL    C11011766   3.202   7.631   3.343 -0.6254 -0.0666  0.9360
  264OL    H10R11767   3.221   7.528   3.371  0.6253  0.2614  1.3481
  264OL    C11111768   3.138   7.710   3.456 -0.8809  0.7737 -0.1421
  264OL    H11R11769   3.095   7.803   3.418 -0.9292  0.0656 -1.9018
  264OL    H11S11770   3.199   7.721   3.546 -1.8877 -0.3558  0.7153
  264OL    C11211771   3.027   7.625   3.505  0.7169  0.0480 -0.1459
  264OL    H12R11772   3.064   7.534   3.552  1.1761  0.8543  1.1124
  264OL    H12S11773   2.961   7.616   3.418  2.1138 -2.2036 -1.0510
  264OL    C11311774   2.951   7.710   3.608  0.8042 -0.3447 -0.0320
  264OL    H13R11775   2.937   7.810   3.569 -0.1040 -0.6444 -0.5000
  264OL    H13S11776   3.000   7.713   3.705  0.6013  0.0374  0.0621
  264OL    C11411777   2.812   7.648   3.644 -0.3707  0.4856  0.0629
  264OL    H14R11778   2.834   7.551   3.689  0.6932  0.6291 -0.1249
  264OL    H14S11779   2.761   7.637   3.548 -1.7873  1.0034  0.7256
  264OL    C11511780   2.741   7.755   3.726  0.5699 -0.0411 -0.4427
  264OL    H15R11781   2.718   7.841   3.663 -0.4193 -0.7190 -1.0394
  264OL    H15S11782   2.805   7.791   3.806  1.6753 -0.8202 -0.9491
  264OL    C11611783   2.593   7.719   3.767  0.1746 -0.2206  0.5033
  264OL    H16R11784   2.541   7.677   3.680  0.3458 -0.0216  0.3047
  264OL    H16S11785   2.532   7.807   3.783  0.5712 -0.1369  1.6144
  264OL    C11711786   2.603   7.621   3.886  0.3416  0.4420 -0.5396
  264OL    H17R11787   2.675   7.544   3.860  2.3684  2.2349 -0.4993
  264OL    H17S11788   2.505   7.575   3.903  0.9516 -0.6526  0.1255
  264OL    C11811789   2.653   7.690   4.012  0.0763 -0.3197  0.5069
  264OL    H18R11790   2.658   7.616   4.092  2.4910  1.3859  2.0377
  264OL    H18S11791   2.585   7.763   4.056  0.0452  0.9478 -1.5269
  264OL    H18T11792   2.754   7.731   4.008 -0.4551  1.0978  1.1411
  265PA    C11611793   3.046  -1.924   3.838  0.4504  0.3805 -0.0642
  265PA    H16R11794   3.013  -1.844   3.905  1.0467 -0.8354  1.7478
  265PA    H16S11795   3.044  -1.884   3.736  3.2829 -0.7335 -0.6373
  265PA    H16T11796   3.146  -1.947   3.875 -0.0580 -0.1158  1.0549
  265PA    C11511797   2.955  -2.048   3.848 -0.9962  0.0314  0.7352
  265PA    H15R11798   2.960  -2.102   3.942  0.5465 -2.0886 -0.4965
  265PA    H15S11799   2.850  -2.022   3.832 -0.8137 -0.5198 -1.7036
  265PA    C11411800   3.000  -2.156   3.751 -0.6226  1.0346 -0.3624
  265PA    H14R11801   3.099  -2.196   3.773 -1.3669 -0.1265  1.0155
  265PA    H14S11802   2.938  -2.245   3.760 -0.3297  0.6374 -1.9642
  265PA    C11311803   2.993  -2.108   3.606  0.1482  0.3153  0.9174
  265PA    H13R11804   2.893  -2.066   3.587 -0.5687 -1.9224 -0.6453
  265PA    H13S11805   3.075  -2.036   3.596  0.3605  0.5011  3.4512
  265PA    C11211806   3.009  -2.215   3.497 -0.9059 -0.6091  0.0412
  265PA    H12R11807   3.114  -2.236   3.474 -1.1042 -1.7359  0.1238
  265PA    H12S11808   2.965  -2.307   3.535 -3.4268  0.8778  0.9261
  265PA    C11111809   2.939  -2.161   3.370  0.5380 -0.3303 -0.3560
  265PA    H11R11810   2.833  -2.151   3.398  0.3382  0.0644 -1.2505
  265PA    H11S11811   2.980  -2.063   3.348  1.3973 -1.2055 -3.0165
  265PA    C11011812   2.957  -2.241   3.236 -1.1714  0.0783 -0.2760
  265PA    H10R11813   2.919  -2.343   3.244 -0.4064 -0.2260 -0.4457
  265PA    H10S11814   2.904  -2.187   3.158  0.2957  1.9779 -0.0346
  265PA     C1911815   3.103  -2.248   3.209  0.7223 -0.7434 -0.0122
  265PA     H9R11816   3.149  -2.150   3.193  1.3625 -1.0777 -0.2858
  265PA     H9S11817   3.156  -2.303   3.287  0.4277 -4.1883 -2.0557
  265PA     C1811818   3.116  -2.318   3.079  0.2321 -1.3687 -0.0335
  265PA     H8R11819   3.194  -2.390   3.105 -0.7227 -1.5011  2.7679
  265PA     H8S11820   3.029  -2.380   3.058  0.4561 -1.9424  0.6989
  265PA     C1711821   3.157  -2.235   2.958 -0.2015 -0.5618  0.2350
  265PA     H7R11822   3.229  -2.154   2.977 -0.6252  0.1509 -1.0809
  265PA     H7S11823   3.213  -2.299   2.890  1.9264  2.0708 -0.6901
  265PA     C1611824   3.036  -2.174   2.888 -0.0784  0.5433  0.1999
  265PA     H6R11825   2.969  -2.254   2.858  1.5626 -0.0534 -2.1246
  265PA     H6S11826   2.984  -2.118   2.966 -0.8774 -1.1882  0.9611
  265PA     C1511827   3.063  -2.085   2.759 -0.4882  0.5795 -0.6777
  265PA     H5R11828   3.101  -1.989   2.794 -1.9912  0.8746  0.2107
  265PA     H5S11829   3.139  -2.127   2.693 -0.6712  0.4472 -0.8047
  265PA     C1411830   2.936  -2.056   2.677  0.0280 -0.4171 -0.0573
  265PA     H4R11831   2.885  -2.150   2.655  1.1985 -0.9895 -0.3981
  265PA     H4S11832   2.877  -1.997   2.747  2.3078  0.9917  0.8190
  265PA     C1311833   2.959  -1.996   2.538  0.5081  0.4496 -0.0365
  265PA     H3R11834   2.869  -1.947   2.500 -1.1188 -3.4733 -1.6726
  265PA     H3S11835   3.036  -1.919   2.546  2.8285 -1.8792  1.6972
  265PA     C1211836   2.993  -2.097   2.420  0.3628 -0.6686  0.5468
  265PA     H2R11837   3.097  -2.130   2.416  0.3915 -1.1828  3.5737
  265PA     H2S11838   2.926  -2.180   2.443 -0.0247  0.3340  3.4387
  266PC     C1111839   2.968  -2.042   2.277 -0.1061 -0.0661 -0.9757
  266PC     O1211840   3.033  -1.957   2.222  0.0144 -0.0104  0.2853
  266PC     O1111841   2.866  -2.099   2.224  0.6429 -0.3779  0.1181
  266PC      C111842   2.806  -2.056   2.097  0.3539 -0.1626 -0.1206
  266PC      HR11843   2.708  -2.104   2.091 -0.6383  1.8793 -1.4107
  266PC      HS11844   2.800  -1.947   2.089  2.0714 -0.0158  0.1035
  266PC      C211845   2.888  -2.100   1.975 -0.3852  0.3944  0.6197
  266PC      HX11846   2.981  -2.044   1.988 -0.2428 -0.1630  2.1863
  266PC      C311847   2.805  -2.067   1.840 -0.3320  0.2833  0.1879
  266PC      HA11848   2.855  -2.105   1.750 -1.1774  0.3588 -0.3302
  266PC      HB11849   2.709  -2.114   1.861  0.0629 -0.6299  0.0155
  266PC     O3111850   2.795  -1.920   1.834  0.1557 -0.1911 -0.0327
  266PC     P3111851   2.906  -1.821   1.779 -0.2025  0.1153  0.0627
  266PC     O3211852   2.877  -1.814   1.624 -0.3965  0.7891  0.1302
  266PC     C3111853   2.742  -1.789   1.580  0.2199 -1.1883  0.3737
  266PC     H1A11854   2.665  -1.852   1.624 -0.5950 -1.7867 -1.8379
  266PC     H1B11855   2.712  -1.686   1.602 -1.8656 -1.5499 -0.5297
  266PC     C3211856   2.729  -1.816   1.428  0.2042 -0.4244  0.2313
  266PC     H2A11857   2.754  -1.922   1.426 -0.7525 -0.7101  1.7249
  266PC     H2B11858   2.629  -1.792   1.391  0.1336  3.2138  2.2533
  266PC     N3111859   2.822  -1.749   1.329 -0.2809 -0.4648  0.3398
  266PC     C3311860   2.958  -1.803   1.358 -0.3053  0.0313 -0.2769
  266PC     H3A11861   3.001  -1.754   1.445 -1.8771  0.5181  0.2602
  266PC     H3B11862   2.947  -1.910   1.374  0.1663 -0.0589 -0.5136
  266PC     H3C11863   3.020  -1.788   1.269  2.2601 -0.9646  1.2239
  266PC     C3411864   2.791  -1.792   1.190 -0.7770  0.1973 -0.9358
  266PC     H4A11865   2.867  -1.741   1.131 -0.0523  0.1587 -0.0697
  266PC     H4B11866   2.795  -1.901   1.192 -1.1228  0.1456  2.3438
  266PC     H4C11867   2.689  -1.764   1.166 -1.5779 -0.0429  1.8841
  266PC     C3511868   2.825  -1.596   1.342  0.3821  0.2293 -0.0797
  266PC     H5A11869   2.896  -1.555   1.270 -0.6687  0.7569 -0.8448
  266PC     H5B11870   2.848  -1.557   1.441  1.3865 -0.2455 -0.1126
  266PC     H5C11871   2.731  -1.561   1.300  0.3272 -1.1338 -1.1725
  266PC     O3311872   2.879  -1.686   1.842  0.4852  0.0973  0.9081
  266PC     O3411873   3.037  -1.881   1.805 -0.2249 -0.2348 -0.1971
  266PC     O2111874   2.909  -2.244   1.988 -0.1121  0.1011 -0.8145
  266PC     C2111875   3.022  -2.303   1.938  0.1867 -0.7411 -0.5649
  266PC     O2211876   3.093  -2.254   1.856  0.5229  0.2846  0.4546
  267OL     C1211877   3.043  -2.445   1.989  0.1218  0.5461  0.4556
  267OL     H2R11878   3.140  -2.487   1.961  0.6421  1.2585  1.1503
  267OL     H2S11879   2.972  -2.513   1.942  0.7007  0.2057  0.0591
  267OL     C1311880   3.031  -2.452   2.145  0.0753 -0.4309  0.0955
  267OL     H3R11881   3.020  -2.557   2.174 -1.6026 -0.5851 -0.9645
  267OL     H3S11882   2.939  -2.405   2.178  1.1289  1.4946  0.4364
  267OL     C1411883   3.133  -2.387   2.235  0.0698 -0.4746 -0.0795
  267OL     H4R11884   3.122  -2.280   2.218 -1.6376 -0.1953  2.2498
  267OL     H4S11885   3.236  -2.409   2.207  0.4482 -1.0053  1.5997
  267OL     C1511886   3.099  -2.413   2.379  0.6697 -0.4617 -0.5168
  267OL     H5R11887   2.993  -2.390   2.394  0.6910 -1.5379  1.7112
  267OL     H5S11888   3.150  -2.343   2.445 -1.7039  0.8533  0.0516
  267OL     C1611889   3.125  -2.554   2.438  0.0837  0.2649 -0.4552
  267OL     H6R11890   3.221  -2.587   2.398  0.0816 -0.3245  0.0112
  267OL     H6S11891   3.041  -2.612   2.398  0.8776 -0.2937 -1.3371
  267OL     C1711892   3.110  -2.552   2.589 -0.1697  0.0585  0.3236
  267OL     H7R11893   3.008  -2.525   2.616 -0.2523 -0.7046  0.7859
  267OL     H7S11894   3.187  -2.488   2.632  0.5485  1.1604 -2.3791
  267OL     C1811895   3.121  -2.698   2.634 -0.4838 -0.5618 -0.5858
  267OL     H8R11896   3.212  -2.744   2.595 -0.0209  0.7093 -1.0485
  267OL     H8S11897   3.034  -2.750   2.593 -1.6899  0.4273  0.6242
  267OL     C1911898   3.120  -2.714   2.789 -0.1536  0.0803  0.3754
  267OL     H9R11899   3.028  -2.752   2.831  0.1355 -0.1289  0.8219
  267OL    C11011900   3.233  -2.706   2.861  0.1590  0.2416 -0.4931
  267OL    H10R11901   3.220  -2.742   2.963 -0.7364 -1.1340 -1.0536
  267OL    C11111902   3.371  -2.678   2.819  0.6239 -0.4637  0.5148
  267OL    H11R11903   3.385  -2.693   2.712  0.6955  0.9455  0.3026
  267OL    H11S11904   3.439  -2.748   2.869  3.0552  1.4449  0.0511
  267OL    C11211905   3.413  -2.535   2.850 -0.2753 -0.6935  0.0424
  267OL    H12R11906   3.338  -2.456   2.842  0.9353  0.7548  2.0022
  267OL    H12S11907   3.492  -2.504   2.781 -0.0656  3.3028  1.7687
  267OL    C11311908   3.474  -2.519   2.987  0.3582  0.5375  0.2131
  267OL    H13R11909   3.391  -2.540   3.055  0.8175 -3.1985 -0.1386
  267OL    H13S11910   3.497  -2.412   2.994  0.2586  0.5701  0.0473
  267OL    C11411911   3.600  -2.603   3.009  0.4117 -0.0776  0.3030
  267OL    H14R11912   3.676  -2.567   2.939  0.0949  1.4443  0.6988
  267OL    H14S11913   3.571  -2.707   2.996  1.6442 -0.1335 -2.5678
  267OL    C11511914   3.645  -2.607   3.153 -1.0056 -0.1175  0.5052
  267OL    H15R11915   3.562  -2.625   3.222  0.2816  0.1517  2.2011
  267OL    H15S11916   3.693  -2.513   3.181 -1.3663 -0.2730  1.6953
  267OL    C11611917   3.756  -2.715   3.177  0.3167 -0.6375  0.3299
  267OL    H16R11918   3.785  -2.689   3.279  0.1929  1.8151 -0.2024
  267OL    H16S11919   3.836  -2.686   3.109 -0.5687  0.6904 -0.1917
  267OL    C11711920   3.720  -2.865   3.160 -0.0543  0.1474 -0.1119
  267OL    H17R11921   3.698  -2.871   3.053  0.8769  2.2840 -0.4668
  267OL    H17S11922   3.634  -2.880   3.225  0.8148  0.2773  1.1098
  267OL    C11811923   3.838  -2.961   3.204 -0.4848 -0.5578  0.1648
  267OL    H18R11924   3.931  -2.905   3.220 -0.5855 -0.3067 -0.1184
  267OL    H18S11925   3.863  -3.032   3.125  0.8084 -1.9087  1.6926
  267OL    H18T11926   3.811  -3.016   3.295 -2.6275  0.6211  0.2845
  268PA    C11611927   6.427   3.831   3.913 -0.9399 -0.1360 -0.0357
  268PA    H16R11928   6.360   3.744   3.908 -0.2313 -0.6530 -0.8639
  268PA    H16S11929   6.475   3.846   4.010  0.5942 -2.3766 -0.3563
  268PA    H16T11930   6.364   3.917   3.892 -1.2663 -0.8100 -1.9953
  268PA    C11511931   6.532   3.818   3.805 -0.1792 -0.2432 -0.5012
  268PA    H15R11932   6.599   3.904   3.821  0.0059 -0.7497  1.8671
  268PA    H15S11933   6.587   3.729   3.838  1.6429  1.2430  0.7354
  268PA    C11411934   6.470   3.817   3.662  0.2120 -0.0923  0.1831
  268PA    H14R11935   6.407   3.905   3.651 -0.5671 -0.4523  1.6158
  268PA    H14S11936   6.556   3.824   3.595  0.9719  1.4344  1.2526
  268PA    C11311937   6.398   3.687   3.626  0.8667  0.1377  0.3323
  268PA    H13R11938   6.475   3.610   3.636  0.5683 -0.1347  0.5575
  268PA    H13S11939   6.324   3.669   3.705 -1.2137  3.5848 -0.6481
  268PA    C11211940   6.319   3.694   3.494 -0.2504 -0.2388  0.0729
  268PA    H12R11941   6.240   3.768   3.504  1.2709  1.4695 -0.0376
  268PA    H12S11942   6.391   3.729   3.420  0.5760 -1.0907  0.4356
  268PA    C11111943   6.261   3.559   3.452 -0.7904 -0.3689  0.4566
  268PA    H11R11944   6.177   3.540   3.519 -1.3401 -0.3879 -0.2081
  268PA    H11S11945   6.216   3.557   3.352 -0.0526 -2.3086  0.1293
  268PA    C11011946   6.346   3.434   3.446 -0.3849  0.4773  0.3931
  268PA    H10R11947   6.387   3.422   3.547  0.2019 -1.8146 -0.0688
  268PA    H10S11948   6.284   3.345   3.444 -0.4166  0.4879  0.7398
  268PA     C1911949   6.463   3.419   3.339  0.1690 -1.0108 -0.3819
  268PA     H9R11950   6.426   3.445   3.240 -0.5902  1.5025  0.4744
  268PA     H9S11951   6.534   3.499   3.361 -1.9857  0.7903  0.4741
  268PA     C1811952   6.530   3.279   3.340 -0.1842  0.2005  0.5722
  268PA     H8R11953   6.625   3.276   3.287  0.2534 -1.9635  1.3783
  268PA     H8S11954   6.543   3.246   3.443  0.6849  0.2691  0.4877
  268PA     C1711955   6.448   3.171   3.270  0.8600  0.5689 -0.4360
  268PA     H7R11956   6.488   3.071   3.285 -1.0879 -0.0880  0.6235
  268PA     H7S11957   6.366   3.159   3.340  2.5441 -0.4452  1.4640
  268PA     C1611958   6.407   3.177   3.122 -0.2207  0.2637 -0.3249
  268PA     H6R11959   6.378   3.279   3.093 -1.0108  0.2637  0.4248
  268PA     H6S11960   6.500   3.151   3.072  1.0277  0.5429  1.7373
  268PA     C1511961   6.299   3.082   3.081  0.4778  1.2663 -0.3667
  268PA     H5R11962   6.317   2.979   3.114 -3.4240  0.9422  1.3227
  268PA     H5S11963   6.212   3.119   3.136  0.6616  1.5879 -0.2916
  268PA     C1411964   6.266   3.094   2.930 -0.0755 -0.0429  0.4022
  268PA     H4R11965   6.297   3.194   2.897  0.5759 -0.2180  0.4834
  268PA     H4S11966   6.324   3.028   2.866 -3.1397 -0.0870 -2.6129
  268PA     C1311967   6.119   3.068   2.874  0.4614  0.2937  0.0113
  268PA     H3R11968   6.102   2.961   2.885 -0.1197  0.3527 -0.3056
  268PA     H3S11969   6.050   3.115   2.945  0.5051 -0.3783  0.5079
  268PA     C1211970   6.084   3.097   2.724 -0.6521  0.3620  0.1407
  268PA     H2R11971   5.981   3.072   2.697 -0.7380  1.1199 -0.2691
  268PA     H2S11972   6.102   3.199   2.690  3.7554 -0.3906 -0.3545
  269PC     C1111973   6.155   3.004   2.623  0.5337  0.1159 -0.6428
  269PC     O1211974   6.092   2.917   2.568 -0.7742  0.3971  0.3129
  269PC     O1111975   6.283   3.041   2.592 -0.0294  0.2043 -0.7215
  269PC      C111976   6.347   2.964   2.488  0.4668  0.5815  0.7490
  269PC      HR11977   6.370   2.862   2.521  0.4215  0.1722 -0.4378
  269PC      HS11978   6.281   2.951   2.402 -2.3389 -1.2199  2.9853
  269PC      C211979   6.480   3.033   2.451 -0.6123 -0.0789 -0.0569
  269PC      HX11980   6.452   3.127   2.404  0.3553 -0.3989 -1.3152
  269PC      C311981   6.561   2.939   2.356 -0.2459  0.4252  0.8754
  269PC      HA11982   6.659   2.975   2.322  0.3992 -0.8962  1.2478
  269PC      HB11983   6.585   2.844   2.405  2.2636 -0.6747 -2.1585
  269PC     O3111984   6.488   2.906   2.232 -0.9205 -0.0942 -0.3596
  269PC     P3111985   6.460   3.014   2.127  0.0317  0.5432 -0.0379
  269PC     O3211986   6.308   3.055   2.152 -0.7219  0.1198 -0.2054
  269PC     C3111987   6.198   2.981   2.096 -0.1578 -0.1359 -0.2700
  269PC     H1A11988   6.217   2.882   2.055 -1.2507 -0.7144  0.6013
  269PC     H1B11989   6.128   2.973   2.179  1.1823  0.4633  0.9616
  269PC     C3211990   6.135   3.063   1.980  0.5545  0.0173  0.4016
  269PC     H2A11991   6.120   3.169   2.002  0.9378  0.7167 -2.3392
  269PC     H2B11992   6.197   3.056   1.891 -0.5145  1.2186 -0.4576
  269PC     N3111993   6.006   3.010   1.925  0.0564  0.2138 -0.5701
  269PC     C3311994   5.963   3.092   1.811 -0.3039 -0.3030  0.0605
  269PC     H3A11995   6.050   3.094   1.745 -0.8345  0.3868 -0.6274
  269PC     H3B11996   5.884   3.036   1.762  1.7329 -0.6917 -3.1112
  269PC     H3C11997   5.940   3.189   1.856  0.3810  1.0862 -2.3878
  269PC     C3411998   6.013   2.868   1.874  0.3466 -0.0828 -0.6815
  269PC     H4A11999   6.092   2.872   1.799  0.8674  0.0039 -0.1354
  269PC     H4B12000   6.037   2.809   1.963  0.6028  2.0511  0.7414
  269PC     H4C12001   5.916   2.843   1.829  0.8999 -0.4998 -1.6741
  269PC     C3512002   5.895   3.012   2.034  0.3328  0.0014  0.1301
  269PC     H5A12003   5.870   3.118   2.046 -0.7288 -0.3944  1.8699
  269PC     H5B12004   5.940   2.962   2.120  1.0148 -3.3280 -1.9892
  269PC     H5C12005   5.802   2.967   2.001 -0.2105  0.6249  0.7591
  269PC     O3312006   6.549   3.130   2.154 -0.1911  0.3145 -0.6996
  269PC     O3412007   6.473   2.960   1.992 -0.6386 -0.2207  0.5378
  269PC     O2112008   6.559   3.046   2.569 -0.1045  0.1827 -0.4092
  269PC     C2112009   6.673   3.119   2.566  0.0109  0.1785 -0.5371
  269PC     O2212010   6.720   3.183   2.474 -0.4128 -0.2304  0.5944
  270OL     C1212011   6.720   3.110   2.709 -0.4494 -0.6347 -0.5740
  270OL     H2R12012   6.750   3.007   2.731 -0.4218 -1.2257 -3.0899
  270OL     H2S12013   6.641   3.148   2.775  1.1718  1.6867  0.1674
  270OL     C1312014   6.831   3.215   2.730 -0.7082 -0.7126  0.6149
  270OL     H3R12015   6.800   3.307   2.679  2.1796  1.0899  1.8994
  270OL     H3S12016   6.925   3.183   2.684  1.0764  1.4430  2.5771
  270OL     C1412017   6.847   3.239   2.886  0.2979 -0.5218 -0.5819
  270OL     H4R12018   6.747   3.226   2.927  0.0892  2.2147 -0.0468
  270OL     H4S12019   6.875   3.342   2.910  2.1365 -1.4803  1.7221
  270OL     C1512020   6.940   3.142   2.952 -0.1831  0.1538 -0.7512
  270OL     H5R12021   7.033   3.134   2.896 -0.7397 -0.1874 -1.6401
  270OL     H5S12022   6.902   3.040   2.963 -0.9159  0.5702  1.0524
  270OL     C1612023   6.974   3.183   3.098  0.3173  0.2471 -0.2022
  270OL     H6R12024   6.886   3.183   3.162  0.0113  0.2928 -0.6177
  270OL     H6S12025   7.010   3.286   3.095  0.6138  0.1259 -1.0442
  270OL     C1712026   7.082   3.094   3.160  0.1097  0.1224 -0.4344
  270OL     H7R12027   7.172   3.139   3.118 -0.5730 -0.1324 -2.2396
  270OL     H7S12028   7.085   2.989   3.133  0.7875  0.5489 -2.1521
  270OL     C1812029   7.076   3.101   3.317  0.2195  0.4963 -0.2246
  270OL     H8R12030   7.163   3.046   3.352  0.5057 -0.4504 -2.2548
  270OL     H8S12031   6.985   3.046   3.344  1.1476 -1.1839 -0.3642
  270OL     C1912032   7.070   3.243   3.365  0.0047 -0.5323 -0.1214
  270OL     H9R12033   7.086   3.314   3.283  0.5683  0.4414  0.8030
  270OL    C11012034   7.044   3.290   3.488  0.6272 -0.1045 -0.5392
  270OL    H10R12035   7.039   3.397   3.503  1.4102 -0.0765 -0.4750
  270OL    C11112036   7.032   3.205   3.612  0.0962 -0.4681  0.0526
  270OL    H11R12037   7.110   3.232   3.684 -1.8568  0.6081  1.8798
  270OL    H11S12038   7.056   3.102   3.585  2.5191  0.1248 -0.3019
  270OL    C11212039   6.896   3.201   3.679  0.3918  0.4338  0.9500
  270OL    H12R12040   6.856   3.301   3.699  0.3476  0.5146  0.4628
  270OL    H12S12041   6.904   3.157   3.779  1.9639  2.1035  1.6244
  270OL    C11312042   6.801   3.119   3.594 -0.0735  0.2562 -0.4064
  270OL    H13R12043   6.798   3.158   3.492 -0.7328 -1.1050 -0.9382
  270OL    H13S12044   6.699   3.129   3.632 -0.3054 -0.3228 -0.8572
  270OL    C11412045   6.833   2.970   3.586  0.6145 -0.1671 -0.4402
  270OL    H14R12046   6.829   2.926   3.686 -1.1475 -2.0820 -1.2764
  270OL    H14S12047   6.933   2.949   3.547  0.7154  0.5954 -0.6174
  270OL    C11512048   6.742   2.884   3.501  0.2486 -0.0744  0.3834
  270OL    H15R12049   6.638   2.896   3.532  0.9708  1.5792  2.4614
  270OL    H15S12050   6.777   2.782   3.520  0.8973  0.1120  0.2033
  270OL    C11612051   6.753   2.919   3.357  0.5306  0.6536 -0.4421
  270OL    H16R12052   6.850   2.880   3.325  0.0962 -1.1788  0.3114
  270OL    H16S12053   6.736   3.026   3.345 -1.1291  0.4622 -0.1342
  270OL    C11712054   6.651   2.852   3.267 -0.4412  0.3384 -0.5938
  270OL    H17R12055   6.547   2.871   3.295  0.1694  0.6113  1.6992
  270OL    H17S12056   6.678   2.746   3.265  3.2531  1.1539 -0.9469
  270OL    C11812057   6.686   2.904   3.126 -0.0372 -0.5317  0.4695
  270OL    H18R12058   6.787   2.875   3.099  0.1919  0.1833  0.5422
  270OL    H18S12059   6.671   3.011   3.112  0.9942 -0.6424 -1.8699
  270OL    H18T12060   6.613   2.865   3.055  2.2723 -1.9358 -1.2826
  271PA    C11612061   5.179   2.083   3.531  0.1681 -0.6541 -0.0565
  271PA    H16R12062   5.148   2.156   3.606 -2.5474 -0.0735 -1.5987
  271PA    H16S12063   5.123   1.995   3.562  0.1070 -0.7154 -0.3385
  271PA    H16T12064   5.147   2.118   3.433 -1.8766  1.3386  1.2211
  271PA    C11512065   5.329   2.061   3.523 -0.0511  0.3439  0.9272
  271PA    H15R12066   5.378   2.158   3.513  0.1963  0.0560 -1.1767
  271PA    H15S12067   5.369   2.028   3.619  1.9844  0.2514  0.1060
  271PA    C11412068   5.381   1.964   3.414  0.5117 -0.6969 -0.0141
  271PA    H14R12069   5.361   1.863   3.451 -1.3158 -0.6284 -0.7111
  271PA    H14S12070   5.329   1.987   3.321 -0.6731 -1.5774  0.4079
  271PA    C11312071   5.532   1.980   3.391 -0.3154 -0.2994 -0.5606
  271PA    H13R12072   5.549   2.080   3.352 -3.4891  0.2815 -0.7008
  271PA    H13S12073   5.586   1.960   3.484 -0.5515 -0.6816 -0.5006
  271PA    C11212074   5.589   1.873   3.290  0.5503 -0.0950 -0.6868
  271PA    H12R12075   5.693   1.846   3.306  0.9470  1.6611 -0.0533
  271PA    H12S12076   5.539   1.777   3.300 -1.0926  0.8064  0.3145
  271PA    C11112077   5.578   1.920   3.148  0.4675 -0.7222 -0.5978
  271PA    H11R12078   5.472   1.937   3.126  0.9809  0.0813 -2.6697
  271PA    H11S12079   5.633   2.014   3.139 -0.7341  0.1056  0.2442
  271PA    C11012080   5.636   1.808   3.051  0.0408 -0.5612 -0.2751
  271PA    H10R12081   5.742   1.798   3.071 -0.0035  1.8449  1.7687
  271PA    H10S12082   5.606   1.705   3.070  0.4253 -0.7248 -0.5448
  271PA     C1912083   5.619   1.829   2.897  0.4104 -0.3855  0.3762
  271PA     H9R12084   5.665   1.739   2.855 -2.2708 -1.3066 -0.7907
  271PA     H9S12085   5.512   1.842   2.886  0.2905  1.2153  2.7249
  271PA     C1812086   5.694   1.959   2.845 -0.0890 -0.0955 -0.2514
  271PA     H8R12087   5.677   2.054   2.897  0.1224 -0.2375  0.0799
  271PA     H8S12088   5.799   1.948   2.873  0.1871  1.4472 -0.6089
  271PA     C1712089   5.685   1.981   2.698 -0.1417  0.5362  0.4309
  271PA     H7R12090   5.598   1.922   2.670  1.8321 -1.6916 -1.3860
  271PA     H7S12091   5.682   2.087   2.672  1.0814 -0.1856 -3.2177
  271PA     C1612092   5.803   1.920   2.623 -0.1973 -0.4562  0.0720
  271PA     H6R12093   5.886   1.982   2.657  0.6994 -2.3303  1.4648
  271PA     H6S12094   5.832   1.822   2.659  0.4338 -1.2080 -2.3344
  271PA     C1512095   5.782   1.925   2.477  0.4137 -0.8040 -0.2245
  271PA     H5R12096   5.686   1.878   2.453 -0.5016  1.5209 -1.4094
  271PA     H5S12097   5.760   2.030   2.454 -0.3430 -0.7120  0.8734
  271PA     C1412098   5.900   1.889   2.396 -0.5706  0.1751 -0.2087
  271PA     H4R12099   5.868   1.884   2.292 -1.9206 -1.7007  0.2321
  271PA     H4S12100   5.984   1.957   2.407 -0.2871 -0.2839  0.5869
  271PA     C1312101   5.949   1.745   2.424  0.1073  0.2188 -0.9952
  271PA     H3R12102   6.039   1.726   2.366  0.8097 -0.4587  0.2829
  271PA     H3S12103   5.969   1.734   2.530  1.1146 -0.2802 -1.2248
  271PA     C1212104   5.849   1.631   2.381 -0.2426  0.0952 -0.4232
  271PA     H2R12105   5.902   1.535   2.382  1.5456  0.9833 -1.8655
  271PA     H2S12106   5.764   1.635   2.448 -0.1583  2.7677 -0.3518
  272PC     C1112107   5.786   1.636   2.243 -0.7475 -0.9342  0.2389
  272PC     O1212108   5.798   1.540   2.167  0.1740 -0.1475 -0.2820
  272PC     O1112109   5.701   1.745   2.229 -0.2096 -0.3865 -0.4188
  272PC      C112110   5.635   1.752   2.098  0.0097 -0.0576  0.1926
  272PC      HR12111   5.713   1.778   2.027  0.2030 -0.6708  0.1717
  272PC      HS12112   5.584   1.661   2.066 -1.3940  0.5365  0.6681
  272PC      C212113   5.533   1.869   2.108 -0.3573  0.2067 -0.2570
  272PC      HX12114   5.482   1.891   2.014 -0.4102 -0.7085 -0.4499
  272PC      C312115   5.583   2.007   2.140 -0.9120 -0.4358 -0.0052
  272PC      HA12116   5.502   2.080   2.148 -0.5987  0.0335 -0.9401
  272PC      HB12117   5.628   1.997   2.239 -0.4040 -1.0435 -0.2910
  272PC     O3112118   5.685   2.054   2.052  0.4460 -0.2173 -0.4971
  272PC     P3112119   5.643   2.119   1.906  0.1287  0.0046 -0.1161
  272PC     O3212120   5.636   1.989   1.807 -0.0433 -0.5113 -0.6563
  272PC     C3112121   5.725   1.966   1.697  0.1637  0.4187 -0.2511
  272PC     H1A12122   5.678   1.903   1.621  3.7078 -1.6773 -0.8909
  272PC     H1B12123   5.746   2.062   1.648 -0.3563  0.5289 -0.2726
  272PC     C3212124   5.850   1.891   1.753  0.1623  0.0351 -0.1595
  272PC     H2A12125   5.911   1.960   1.810  0.6065 -0.8158  0.4156
  272PC     H2B12126   5.815   1.814   1.823 -1.2613  0.2485 -0.5884
  272PC     N3112127   5.949   1.830   1.650 -1.3514 -0.8928 -0.0202
  272PC     C3312128   5.879   1.753   1.542  0.5249  0.1119 -0.1617
  272PC     H3A12129   5.813   1.685   1.596  0.7408 -1.9018 -2.2546
  272PC     H3B12130   5.820   1.820   1.480 -0.1072  0.2887  0.6172
  272PC     H3C12131   5.945   1.683   1.491  0.4595  0.2293 -0.4073
  272PC     C3412132   6.025   1.946   1.585 -0.6725 -0.3274 -0.5056
  272PC     H4A12133   6.085   1.898   1.508 -1.0899  0.5504 -1.4004
  272PC     H4B12134   5.950   2.009   1.536  2.1973  2.7432 -1.3634
  272PC     H4C12135   6.090   2.002   1.653  1.2225  0.5959 -2.9310
  272PC     C3512136   6.038   1.731   1.713 -0.0859  0.4630 -0.1064
  272PC     H5A12137   6.107   1.698   1.635  0.5736  1.9577 -0.1880
  272PC     H5B12138   5.971   1.656   1.755 -0.2001 -1.2974 -3.1925
  272PC     H5C12139   6.076   1.780   1.803  0.2044 -0.3156  0.2016
  272PC     O3312140   5.510   2.186   1.900  0.4566 -0.2555 -0.4874
  272PC     O3412141   5.756   2.201   1.870 -0.3307  0.1036  0.0090
  272PC     O2112142   5.424   1.833   2.193  0.9430  0.4748 -0.0605
  272PC     C2112143   5.328   1.745   2.163  0.0052  0.2097  0.6570
  272PC     O2212144   5.330   1.685   2.059 -0.6042 -0.0008 -0.0755
  273OL     C1212145   5.232   1.712   2.273 -0.1256  0.5381  0.4232
  273OL     H2R12146   5.131   1.723   2.232  0.3765 -2.6108 -2.1242
  273OL     H2S12147   5.236   1.791   2.348  1.1731  0.7124  0.1933
  273OL     C1312148   5.260   1.575   2.347 -0.1633 -0.4583  0.2107
  273OL     H3R12149   5.236   1.490   2.282  1.0237 -1.6358  1.2553
  273OL     H3S12150   5.192   1.570   2.432 -0.3684 -0.5639  0.0401
  273OL     C1412151   5.399   1.538   2.403 -0.5551 -0.2567  0.2467
  273OL     H4R12152   5.471   1.518   2.323  0.6950 -0.0114  1.2881
  273OL     H4S12153   5.384   1.451   2.467 -1.0680  1.7575  3.0329
  273OL     C1512154   5.458   1.646   2.493 -0.2922 -0.1952  0.5166
  273OL     H5R12155   5.375   1.702   2.537 -1.1402  0.1727 -1.4724
  273OL     H5S12156   5.511   1.719   2.433 -0.5053  0.1150  0.7012
  273OL     C1612157   5.553   1.589   2.602  0.1873 -0.6230 -0.2084
  273OL     H6R12158   5.630   1.658   2.638  0.3673 -0.4305 -0.9271
  273OL     H6S12159   5.615   1.512   2.554 -0.9389 -1.1468 -0.8619
  273OL     C1712160   5.483   1.518   2.721 -0.3627  0.2193 -0.5462
  273OL     H7R12161   5.427   1.445   2.661  1.0377 -0.0230 -1.5983
  273OL     H7S12162   5.409   1.588   2.763 -0.6138  0.0102 -0.6358
  273OL     C1812163   5.565   1.444   2.822  0.3616  0.1626  0.1885
  273OL     H8R12164   5.632   1.513   2.873  0.9459  0.8617 -1.4626
  273OL     H8S12165   5.631   1.372   2.773  1.4959  0.6991  0.8946
  273OL     C1912166   5.473   1.379   2.925 -0.5031  0.2802  1.0035
  273OL     H9R12167   5.378   1.334   2.898 -1.0182  1.8747 -0.0016
  273OL    C11012168   5.497   1.376   3.059 -0.3106  0.5271  0.7389
  273OL    H10R12169   5.430   1.319   3.123  1.7431 -0.4342  2.1281
  273OL    C11112170   5.628   1.418   3.131 -0.1243 -0.4577  0.1724
  273OL    H11R12171   5.599   1.499   3.199  1.0672 -0.0610  0.2338
  273OL    H11S12172   5.697   1.461   3.058 -0.8585  1.7093  0.6837
  273OL    C11212173   5.686   1.304   3.216  0.3498  0.3854  0.4116
  273OL    H12R12174   5.606   1.277   3.286  1.4172 -0.9756  1.1690
  273OL    H12S12175   5.769   1.346   3.274  0.1393  2.2478 -0.5542
  273OL    C11312176   5.719   1.179   3.132 -0.1692 -0.0290 -0.5170
  273OL    H13R12177   5.796   1.205   3.059 -0.1324 -0.5261 -0.6557
  273OL    H13S12178   5.630   1.150   3.075  1.3117 -2.5616 -1.6868
  273OL    C11412179   5.753   1.064   3.227  0.4750  0.1705  0.7648
  273OL    H14R12180   5.675   1.049   3.302 -1.7235  0.5229 -1.3481
  273OL    H14S12181   5.842   1.095   3.282  0.6526 -2.0800  1.8965
  273OL    C11512182   5.782   0.926   3.163  0.4617  0.4624 -0.1219
  273OL    H15R12183   5.692   0.885   3.117  1.7203 -1.9630 -0.5658
  273OL    H15S12184   5.791   0.850   3.240 -0.1597  1.3072  0.8083
  273OL    C11612185   5.898   0.917   3.060  0.4694 -1.1641  0.5918
  273OL    H16R12186   5.983   0.966   3.107 -0.1989 -1.0201  1.6807
  273OL    H16S12187   5.870   0.971   2.970  0.7619  1.0740  1.7700
  273OL    C11712188   5.908   0.764   3.023  0.0951 -0.7709 -0.3671
  273OL    H17R12189   5.809   0.719   3.019 -0.2773 -0.2638  1.8493
  273OL    H17S12190   5.960   0.711   3.104  2.6241  0.2837 -1.1993
  273OL    C11812191   5.967   0.734   2.882 -0.2123 -0.2001 -0.2495
  273OL    H18R12192   5.890   0.770   2.813 -1.0541 -1.4872 -0.0251
  273OL    H18S12193   5.963   0.626   2.862 -1.6167 -0.4833  1.3082
  273OL    H18T12194   6.066   0.776   2.861  0.4035 -1.5820 -0.2504
  274PA    C11612195   4.671   2.412   3.617  0.4485  0.1276  0.1036
  274PA    H16R12196   4.629   2.482   3.689 -1.9482 -0.3773 -0.6762
  274PA    H16S12197   4.612   2.321   3.628  1.4473 -0.4020  1.1706
  274PA    H16T12198   4.637   2.445   3.518 -1.5597 -1.4556  0.2067
  274PA    C11512199   4.816   2.383   3.630 -0.0929 -0.0421  0.3749
  274PA    H15R12200   4.837   2.364   3.736  0.3900 -0.9658  0.1272
  274PA    H15S12201   4.834   2.292   3.572 -1.4603 -0.2203  0.2019
  274PA    C11412202   4.902   2.496   3.582 -0.0475 -0.7542 -0.7989
  274PA    H14R12203   4.877   2.586   3.639  4.0227  0.3222 -0.4376
  274PA    H14S12204   5.009   2.485   3.599  0.0810  0.3660 -0.8181
  274PA    C11312205   4.882   2.532   3.433  0.4882  0.0994  0.0990
  274PA    H13R12206   4.883   2.439   3.375 -0.9739  1.0001 -1.4515
  274PA    H13S12207   4.787   2.583   3.415  1.4909  1.9046 -0.2772
  274PA    C11212208   4.974   2.645   3.375  0.1455 -0.0902  0.2886
  274PA    H12R12209   4.973   2.729   3.444 -0.2211  0.3340 -0.2236
  274PA    H12S12210   5.076   2.606   3.376 -1.1154 -3.8180 -0.6022
  274PA    C11112211   4.928   2.706   3.244 -0.5488  0.2683 -0.2544
  274PA    H11R12212   4.929   2.618   3.180 -0.0625  0.4902 -0.5578
  274PA    H11S12213   4.824   2.739   3.244 -1.1723 -1.6016 -0.0714
  274PA    C11012214   5.017   2.817   3.183  0.2006 -0.1361 -0.7213
  274PA    H10R12215   5.043   2.894   3.255  0.8785  1.3508 -2.4723
  274PA    H10S12216   5.110   2.770   3.148 -0.7580 -1.7758 -1.1749
  274PA     C1912217   4.947   2.880   3.061 -0.1875 -0.8291 -0.2101
  274PA     H9R12218   4.868   2.945   3.101  1.2755  2.1427 -1.7987
  274PA     H9S12219   5.023   2.950   3.027  1.2216 -1.4974  1.4640
  274PA     C1812220   4.913   2.784   2.955  0.3687  0.3056 -0.0095
  274PA     H8R12221   4.999   2.721   2.930  0.5798  0.4126  0.4246
  274PA     H8S12222   4.832   2.729   3.002 -0.6822  1.8239  0.0200
  274PA     C1712223   4.846   2.839   2.824 -0.3506  0.4332 -0.3057
  274PA     H7R12224   4.782   2.924   2.852  0.4357  1.1869 -0.7677
  274PA     H7S12225   4.926   2.889   2.770  0.1220 -0.3222 -0.3151
  274PA     C1612226   4.770   2.736   2.741  0.0894  0.1107  0.1239
  274PA     H6R12227   4.670   2.722   2.782  0.1864 -0.5205  0.1466
  274PA     H6S12228   4.758   2.774   2.639 -0.6978  0.8393  0.4728
  274PA     C1512229   4.836   2.598   2.730 -0.4160 -0.9694  0.6905
  274PA     H5R12230   4.931   2.607   2.678 -1.0273 -1.5780 -0.5859
  274PA     H5S12231   4.851   2.564   2.833 -0.8907  0.1824  1.1691
  274PA     C1412232   4.751   2.490   2.664  0.0462 -0.1604  0.1746
  274PA     H4R12233   4.644   2.506   2.676  0.3968  2.4389  0.4130
  274PA     H4S12234   4.773   2.489   2.557 -1.7444  0.2421 -0.2289
  274PA     C1312235   4.781   2.352   2.721 -0.2300  0.0203  0.3481
  274PA     H3R12236   4.890   2.347   2.726 -0.1294  0.5888 -0.9123
  274PA     H3S12237   4.741   2.351   2.822 -3.0896  1.9272 -0.6359
  274PA     C1212238   4.736   2.221   2.657  0.4330  0.1472  0.0809
  274PA     H2R12239   4.772   2.141   2.722 -2.1619 -1.3332 -0.1895
  274PA     H2S12240   4.628   2.211   2.662  0.2226  1.1251 -1.6833
  275PC     C1112241   4.777   2.195   2.510 -0.7263  0.0212 -0.9627
  275PC     O1212242   4.742   2.268   2.415  0.0520  0.0976  0.1127
  275PC     O1112243   4.850   2.080   2.503  0.3767 -0.2385  0.1563
  275PC      C112244   4.867   2.019   2.371  0.2997 -0.6070  0.0140
  275PC      HR12245   4.871   1.911   2.387  1.2115 -0.3684  1.6282
  275PC      HS12246   4.785   2.053   2.308  0.9384  2.4241  0.6334
  275PC      C212247   4.987   2.072   2.294  0.8901  0.0510 -0.0817
  275PC      HX12248   4.984   2.181   2.286 -0.6619  0.1762  1.6122
  275PC      C312249   4.991   2.024   2.150  0.8307 -0.3314  0.2952
  275PC      HA12250   5.092   2.037   2.110  1.0116 -1.5540  0.3185
  275PC      HB12251   4.965   1.918   2.142 -1.5779  0.0136  2.4277
  275PC     O3112252   4.901   2.093   2.059  0.6511  0.0169 -0.2212
  275PC     P3112253   4.938   2.230   1.987  0.3878 -0.0378 -0.0503
  275PC     O3212254   4.883   2.335   2.095 -0.3738  0.4766  0.1904
  275PC     C3112255   4.743   2.382   2.107 -0.4741 -0.0906 -0.2642
  275PC     H1A12256   4.739   2.422   2.209  1.8570  1.9847 -0.8761
  275PC     H1B12257   4.726   2.466   2.038 -3.1262  2.7600  3.4459
  275PC     C3212258   4.646   2.260   2.097  0.5985 -0.1766 -0.4012
  275PC     H2A12259   4.650   2.225   1.994  1.0115  0.6253 -0.6618
  275PC     H2B12260   4.671   2.183   2.169 -1.5422 -2.5183 -1.9800
  275PC     N3112261   4.501   2.292   2.124  0.3889  0.0480 -0.2768
  275PC     C3312262   4.480   2.337   2.258 -0.6540  0.1413 -0.0620
  275PC     H3A12263   4.374   2.335   2.284 -0.5923 -0.2346  0.1702
  275PC     H3B12264   4.541   2.285   2.333 -0.5817 -1.0071 -0.8912
  275PC     H3C12265   4.509   2.442   2.256 -0.8717  0.2705 -3.8032
  275PC     C3412266   4.442   2.390   2.028 -0.0417  0.0409  0.0791
  275PC     H4A12267   4.483   2.376   1.928 -0.1189  1.1886 -0.1303
  275PC     H4B12268   4.333   2.389   2.024 -0.0399  1.5906 -1.4976
  275PC     H4C12269   4.460   2.492   2.063 -2.1102  0.1626  0.9565
  275PC     C3512270   4.427   2.168   2.103  0.3008  0.4398 -0.4196
  275PC     H5A12271   4.323   2.185   2.130 -0.0310  0.9839 -1.9224
  275PC     H5B12272   4.469   2.092   2.168 -0.1254 -1.8295 -2.6476
  275PC     H5C12273   4.440   2.129   2.002  0.6656  1.4617 -0.7839
  275PC     O3312274   5.084   2.245   1.984 -0.4255 -0.1700  0.1164
  275PC     O3412275   4.855   2.239   1.866  0.0322 -0.3523  0.0867
  275PC     O2112276   5.099   2.018   2.362 -0.6809 -0.0501  0.5906
  275PC     C2112277   5.191   2.110   2.401  0.0050  0.4935 -0.2737
  275PC     O2212278   5.212   2.221   2.367  0.2372 -0.1170  0.6026
  276OL     C1212279   5.280   2.045   2.501  0.5260 -0.2500 -0.8886
  276OL     H2R12280   5.380   2.035   2.458  0.5293 -0.8900 -0.7458
  276OL     H2S12281   5.248   1.941   2.510  0.9684 -0.3477 -0.4161
  276OL     C1312282   5.287   2.121   2.634  0.2432  0.2599 -0.1196
  276OL     H3R12283   5.335   2.218   2.621  0.8371  0.1501  1.1212
  276OL     H3S12284   5.354   2.058   2.694  0.2140 -0.9302 -1.2834
  276OL     C1412285   5.154   2.140   2.711  0.2182 -0.3170  0.3311
  276OL     H4R12286   5.090   2.200   2.646  1.1425  0.2064 -0.1329
  276OL     H4S12287   5.182   2.201   2.798 -0.5519 -0.0208  0.3780
  276OL     C1512288   5.084   2.017   2.754 -0.3040  0.2039  0.1001
  276OL     H5R12289   5.042   1.965   2.668 -0.4203 -0.0361  0.2989
  276OL     H5S12290   5.001   2.050   2.817 -2.1615 -0.7224 -1.7422
  276OL     C1612291   5.169   1.914   2.841  0.3939 -0.2545 -0.1731
  276OL     H6R12292   5.226   1.964   2.920  3.1998 -0.2725 -2.0448
  276OL     H6S12293   5.235   1.862   2.772  1.9788 -1.1043  1.8761
  276OL     C1712294   5.079   1.801   2.898 -0.1958  0.4168  0.8221
  276OL     H7R12295   4.992   1.794   2.832 -0.9040  2.8228  1.4203
  276OL     H7S12296   5.037   1.840   2.991 -0.6631 -3.7251  2.5617
  276OL     C1812297   5.143   1.652   2.904  0.1765 -0.0636  0.0951
  276OL     H8R12298   5.176   1.613   2.808  1.3939 -0.7775  0.7724
  276OL     H8S12299   5.062   1.591   2.944  0.4931  0.9677  2.5308
  276OL     C1912300   5.262   1.646   2.996  0.4863 -0.1339  0.6683
  276OL     H9R12301   5.341   1.697   2.943 -1.8382  2.1941 -0.8203
  276OL    C11012302   5.260   1.586   3.114 -0.5223 -0.3176 -0.1047
  276OL    H10R12303   5.352   1.592   3.172 -0.7664  1.7915  0.1571
  276OL    C11112304   5.133   1.534   3.176 -0.6703 -0.3213  0.3353
  276OL    H11R12305   5.114   1.431   3.144  1.5226 -0.3578 -1.0245
  276OL    H11S12306   5.055   1.604   3.145 -0.1335  0.0829 -0.1215
  276OL    C11212307   5.148   1.540   3.332  0.9423  0.5062 -0.3860
  276OL    H12R12308   5.044   1.556   3.363  0.6420 -1.3460 -0.3253
  276OL    H12S12309   5.211   1.620   3.371  1.2879 -0.8528  2.0708
  276OL    C11312310   5.205   1.406   3.388  0.3362  0.4490  0.4595
  276OL    H13R12311   5.310   1.404   3.358 -0.0315 -0.2639 -0.8494
  276OL    H13S12312   5.152   1.317   3.352 -0.1605  1.1761 -0.6795
  276OL    C11412313   5.205   1.407   3.542 -0.6100  0.2005 -0.1513
  276OL    H14R12314   5.105   1.417   3.585  0.3370 -0.5127  2.4314
  276OL    H14S12315   5.259   1.494   3.581  0.4017 -0.1283 -0.7645
  276OL    C11512316   5.266   1.283   3.610 -0.0954 -0.5263  0.3789
  276OL    H15R12317   5.207   1.195   3.581 -0.3627  0.6932 -3.3331
  276OL    H15S12318   5.261   1.294   3.718 -2.1127  0.4479  0.2316
  276OL    C11612319   5.408   1.262   3.570 -0.9973 -0.3884  0.0026
  276OL    H16R12320   5.471   1.350   3.590  0.6874 -1.7540  1.0066
  276OL    H16S12321   5.416   1.239   3.464 -2.0567 -0.8084  0.0079
  276OL    C11712322   5.463   1.141   3.645 -0.6706 -0.2661  0.7013
  276OL    H17R12323   5.421   1.045   3.614  1.1187 -1.3769  1.5134
  276OL    H17S12324   5.448   1.157   3.752  0.7138 -0.2930  0.9234
  276OL    C11812325   5.616   1.133   3.619  0.0150  0.5070 -0.0924
  276OL    H18R12326   5.672   1.227   3.629 -2.6644  2.0775  1.2448
  276OL    H18S12327   5.630   1.078   3.526 -0.9748  0.7560 -0.3974
  276OL    H18T12328   5.656   1.060   3.691  3.5647  0.8928 -1.4433
  277PA    C11612329   2.539   4.114   3.942  0.4456 -0.5725 -0.0848
  277PA    H16R12330   2.481   4.056   4.015  1.5813 -3.5423 -1.3521
  277PA    H16S12331   2.517   4.219   3.960 -0.8541 -0.5424 -1.7057
  277PA    H16T12332   2.645   4.093   3.963  0.8877  1.4587 -0.1213
  277PA    C11512333   2.495   4.069   3.800 -0.0956  0.8638 -0.4642
  277PA    H15R12334   2.510   3.961   3.793  1.0030  0.9077  0.6825
  277PA    H15S12335   2.388   4.083   3.782 -0.7813 -2.4555  0.3785
  277PA    C11412336   2.571   4.137   3.687  0.1027 -0.3402 -0.0060
  277PA    H14R12337   2.674   4.104   3.702 -0.4507 -1.5704  1.3686
  277PA    H14S12338   2.534   4.096   3.593 -0.5682  1.7589 -0.7279
  277PA    C11312339   2.547   4.292   3.670 -0.5966  0.1951 -0.4346
  277PA    H13R12340   2.441   4.318   3.679 -0.8526 -0.5327 -1.1287
  277PA    H13S12341   2.598   4.330   3.758  2.5166 -1.7656 -1.2187
  277PA    C11212342   2.631   4.358   3.560 -0.2193 -0.2324 -0.7087
  277PA    H12R12343   2.624   4.463   3.590 -0.8747 -1.1459  2.7708
  277PA    H12S12344   2.736   4.331   3.571 -0.0461  0.3820 -0.8188
  277PA    C11112345   2.574   4.323   3.419 -0.0201  0.1774  0.0875
  277PA    H11R12346   2.607   4.406   3.357  0.3495  0.2140  0.3269
  277PA    H11S12347   2.627   4.232   3.387  1.1903  0.0452  2.2422
  277PA    C11012348   2.426   4.320   3.389  0.2954  0.4500 -0.1101
  277PA    H10R12349   2.367   4.284   3.474 -0.1133  2.7260  0.6630
  277PA    H10S12350   2.391   4.424   3.389 -0.7395  0.1208 -0.5085
  277PA     C1912351   2.392   4.251   3.260  0.4122  0.0648  0.6796
  277PA     H9R12352   2.426   4.148   3.276  0.9689  0.3705  1.5947
  277PA     H9S12353   2.285   4.253   3.242  0.2554  2.4088  1.5788
  277PA     C1812354   2.463   4.303   3.133  0.2175  1.0509 -0.4520
  277PA     H8R12355   2.432   4.398   3.088  3.1493  1.1554 -2.5052
  277PA     H8S12356   2.568   4.319   3.157  0.1186  1.4838 -0.2996
  277PA     C1712357   2.447   4.194   3.022  0.4558  0.0664 -0.4901
  277PA     H7R12358   2.479   4.098   3.064 -1.5146 -0.3721  0.1038
  277PA     H7S12359   2.341   4.175   3.005  0.3102 -0.9352  1.2704
  277PA     C1612360   2.523   4.233   2.896 -0.9170 -0.0985 -0.6362
  277PA     H6R12361   2.500   4.335   2.864  0.8578  0.9069  1.1122
  277PA     H6S12362   2.627   4.238   2.927 -0.8798  1.8012 -0.9150
  277PA     C1512363   2.517   4.135   2.777  0.2302  0.0645  0.0526
  277PA     H5R12364   2.583   4.051   2.798  0.5905  0.0733 -1.0043
  277PA     H5S12365   2.419   4.089   2.780  0.5150 -0.5220  0.6380
  277PA     C1412366   2.559   4.202   2.652 -0.0079 -0.4316  0.2373
  277PA     H4R12367   2.481   4.277   2.639  1.6634  1.3303 -0.0489
  277PA     H4S12368   2.654   4.255   2.657 -1.7056  2.6700  2.6694
  277PA     C1312369   2.560   4.104   2.529  0.4545 -0.6748  0.8918
  277PA     H3R12370   2.646   4.039   2.543  0.5160 -0.6238  0.7541
  277PA     H3S12371   2.468   4.047   2.538  0.1031 -0.4700 -0.9632
  277PA     C1212372   2.571   4.179   2.394 -0.4734 -0.5618 -1.1306
  277PA     H2R12373   2.623   4.272   2.418 -2.0515 -0.1725  1.0559
  277PA     H2S12374   2.631   4.122   2.323  0.9496 -1.2169  0.5277
  278PC     C1112375   2.445   4.224   2.330  0.0837  0.1086 -0.3542
  278PC     O1212376   2.366   4.298   2.388 -0.1898  0.5840 -0.0570
  278PC     O1112377   2.412   4.171   2.210 -0.2151  0.1905 -0.3154
  278PC      C112378   2.294   4.224   2.143 -0.7155 -0.1604 -0.0397
  278PC      HR12379   2.257   4.144   2.079 -0.7002  0.6667 -1.1117
  278PC      HS12380   2.216   4.244   2.217  0.5273 -0.5138  1.4024
  278PC      C212381   2.333   4.352   2.060  0.5671 -0.4899  0.1125
  278PC      HX12382   2.253   4.387   1.994  1.4168  0.7797 -0.2973
  278PC      C312383   2.451   4.330   1.960  0.1697 -0.4040  0.2174
  278PC      HA12384   2.537   4.289   2.014 -1.7011 -2.0945  2.0690
  278PC      HB12385   2.425   4.254   1.886  1.2342 -1.0615  0.4965
  278PC     O3112386   2.492   4.460   1.893  0.2250 -0.1968  0.5240
  278PC     P3112387   2.410   4.521   1.765  0.0579 -0.0981 -0.0057
  278PC     O3212388   2.293   4.597   1.843 -0.1443  0.3811  0.2504
  278PC     C3112389   2.305   4.722   1.909  0.0274  0.3211 -0.0585
  278PC     H1A12390   2.349   4.712   2.009 -0.3250  1.0263  0.1766
  278PC     H1B12391   2.366   4.790   1.849 -0.3258  0.4881 -0.2314
  278PC     C3212392   2.158   4.776   1.913  0.1475 -0.4467  0.0150
  278PC     H2A12393   2.097   4.694   1.951  0.0691 -0.6507 -0.5398
  278PC     H2B12394   2.163   4.858   1.984  1.3954  0.7036 -1.3368
  278PC     N3112395   2.092   4.815   1.780 -0.0104  0.3903  0.1966
  278PC     C3312396   2.191   4.890   1.686  0.5055  0.3139  0.0879
  278PC     H3A12397   2.267   4.820   1.652 -0.0943 -0.5976  0.6026
  278PC     H3B12398   2.137   4.940   1.606 -2.4681 -2.0074  0.4629
  278PC     H3C12399   2.242   4.960   1.754 -1.6362  0.7892  1.2842
  278PC     C3412400   2.030   4.697   1.709  0.5244  0.7746 -0.0292
  278PC     H4A12401   1.942   4.683   1.772 -1.0158  1.9105 -1.8300
  278PC     H4B12402   2.015   4.727   1.605 -1.0283 -1.3320 -0.4829
  278PC     H4C12403   2.088   4.605   1.704  0.0778  0.5341 -1.7478
  278PC     C3512404   1.987   4.903   1.820  0.7769  0.0893 -0.6870
  278PC     H5A12405   1.904   4.847   1.863  1.9124 -0.6292  0.6482
  278PC     H5B12406   1.941   4.946   1.731  0.6904  1.4786 -0.0071
  278PC     H5C12407   2.028   4.975   1.891 -0.5895 -0.1853  0.4448
  278PC     O3312408   2.496   4.630   1.707  0.1542  0.1518 -0.0371
  278PC     O3412409   2.359   4.410   1.681  0.0543 -0.0899  0.4345
  278PC     O2112410   2.380   4.452   2.159  0.2618  0.0962 -0.5932
  278PC     C2112411   2.284   4.536   2.211 -0.8732  0.5562  0.0830
  278PC     O2212412   2.165   4.532   2.188 -0.0983 -0.0671  0.1117
  279OL     C1212413   2.342   4.632   2.309  0.0402 -0.3527  0.1738
  279OL     H2R12414   2.320   4.729   2.264 -1.1077  0.6551  2.7084
  279OL     H2S12415   2.451   4.635   2.319 -0.0706  0.6099  1.4116
  279OL     C1312416   2.277   4.623   2.448  0.1564  0.6040 -0.1574
  279OL     H3R12417   2.290   4.522   2.489 -2.2227  0.0123 -0.7326
  279OL     H3S12418   2.170   4.642   2.442 -0.0427 -0.7095 -1.1076
  279OL     C1412419   2.326   4.733   2.551  0.3590 -0.4682 -0.0259
  279OL     H4R12420   2.267   4.725   2.643  0.3685 -1.7099 -0.1205
  279OL     H4S12421   2.307   4.835   2.516  1.4041 -0.1495  0.2938
  279OL     C1512422   2.472   4.723   2.590  0.1942 -0.0571  0.3421
  279OL     H5R12423   2.493   4.809   2.654 -0.8809  0.5170 -0.0535
  279OL     H5S12424   2.525   4.757   2.502 -0.2311  0.9967  0.4753
  279OL     C1612425   2.532   4.589   2.638  0.3043  0.5898 -0.1218
  279OL     H6R12426   2.529   4.521   2.553 -2.3737  2.8901 -2.0417
  279OL     H6S12427   2.468   4.545   2.715 -0.2208  0.6346 -0.5243
  279OL     C1712428   2.679   4.611   2.688  1.3089 -0.1787  0.3456
  279OL     H7R12429   2.671   4.680   2.772  0.9200 -1.6918  1.5832
  279OL     H7S12430   2.735   4.643   2.600  1.8702 -1.3133  0.2761
  279OL     C1812431   2.746   4.486   2.733 -0.2833 -0.6661 -0.6086
  279OL     H8R12432   2.767   4.433   2.640 -1.4920 -0.7844 -0.8206
  279OL     H8S12433   2.681   4.413   2.782 -1.7831  1.3264  0.4778
  279OL     C1912434   2.876   4.513   2.807  0.1787  0.1876 -0.0186
  279OL     H9R12435   2.964   4.520   2.743  0.3631 -0.3472  0.1763
  279OL    C11012436   2.886   4.525   2.943 -0.2304 -0.4393  0.0147
  279OL    H10R12437   2.983   4.542   2.989 -0.1340 -0.0246 -0.3415
  279OL    C11112438   2.768   4.506   3.040 -0.7435 -0.2752 -0.2696
  279OL    H11R12439   2.804   4.452   3.129 -1.2595 -0.6222 -0.2647
  279OL    H11S12440   2.694   4.445   2.987 -1.4386 -0.4289  0.8288
  279OL    C11212441   2.694   4.636   3.084 -0.1268  0.2464  0.8259
  279OL    H12R12442   2.598   4.617   3.133 -0.7968 -0.5759 -0.7491
  279OL    H12S12443   2.654   4.680   2.993 -1.9555  1.2134  2.0263
  279OL    C11312444   2.764   4.747   3.161  0.3637  0.6180 -0.1804
  279OL    H13R12445   2.699   4.834   3.145  0.9060  1.3658  1.4998
  279OL    H13S12446   2.865   4.761   3.121  1.5037 -2.1721  1.4191
  279OL    C11412447   2.792   4.719   3.315  0.4942 -0.3242  0.2295
  279OL    H14R12448   2.864   4.638   3.316 -0.0459 -0.8531 -0.8818
  279OL    H14S12449   2.700   4.694   3.369  1.8005 -1.8502  1.8247
  279OL    C11512450   2.849   4.834   3.394 -0.6440  0.4593 -0.3958
  279OL    H15R12451   2.843   4.811   3.500 -0.6269 -1.4366 -0.7882
  279OL    H15S12452   2.797   4.930   3.382  0.4804  1.4569  1.9905
  279OL    C11612453   2.992   4.865   3.339 -0.1859 -0.0906 -0.1235
  279OL    H16R12454   2.979   4.881   3.232  0.9338 -2.4719 -0.6865
  279OL    H16S12455   3.075   4.794   3.348 -0.5922 -0.4507  0.9713
  279OL    C11712456   3.036   5.011   3.390  0.7638 -0.4008 -0.6052
  279OL    H17R12457   2.956   5.082   3.368 -1.1045 -2.2087 -0.0073
  279OL    H17S12458   3.124   5.046   3.335 -0.1001  3.0019 -0.0209
  279OL    C11812459   3.065   5.009   3.543  0.3607  0.3540  0.0423
  279OL    H18R12460   2.988   4.954   3.597 -1.7710  1.9472 -1.2401
  279OL    H18S12461   3.082   5.107   3.587 -1.8380  1.2275 -0.9066
  279OL    H18T12462   3.161   4.957   3.546  0.4368  0.3595 -1.5137
  280PA    C11612463   0.606   1.186   3.557 -0.2142 -0.0280 -0.1378
  280PA    H16R12464   0.501   1.166   3.540 -0.3767 -1.0301  1.7911
  280PA    H16S12465   0.616   1.270   3.627 -1.1616  2.2155 -2.5349
  280PA    H16T12466   0.644   1.098   3.610  0.6826  0.6304  0.3491
  280PA    C11512467   0.676   1.229   3.427  0.0915 -0.0400  0.5550
  280PA    H15R12468   0.652   1.329   3.392  3.3321  0.2571 -1.2508
  280PA    H15S12469   0.783   1.239   3.446  0.3541  3.1067 -1.7935
  280PA    C11412470   0.665   1.137   3.304  0.2166 -0.1721  0.1969
  280PA    H14R12471   0.693   1.035   3.330  1.8154  0.1179 -0.2662
  280PA    H14S12472   0.561   1.128   3.274  0.0992 -0.3632  0.6518
  280PA    C11312473   0.737   1.198   3.176  0.3090  0.5227 -0.2786
  280PA    H13R12474   0.740   1.125   3.095  1.9686 -0.1278  0.3254
  280PA    H13S12475   0.673   1.285   3.156 -3.2741 -2.0664 -0.8937
  280PA    C11212476   0.875   1.247   3.192 -0.7326  0.1064  0.2061
  280PA    H12R12477   0.872   1.338   3.251 -2.0549  0.3400 -0.1969
  280PA    H12S12478   0.932   1.173   3.248  0.1773  0.3666 -0.3530
  280PA    C11112479   0.949   1.254   3.056 -0.0288 -0.7236  0.1350
  280PA    H11R12480   1.048   1.292   3.078 -1.1311  1.7787  1.1359
  280PA    H11S12481   0.953   1.149   3.027  1.2533 -0.3816 -1.0136
  280PA    C11012482   0.877   1.339   2.948 -0.3407 -0.4524  0.2090
  280PA    H10R12483   0.770   1.319   2.936 -0.3315 -0.9642  0.9050
  280PA    H10S12484   0.887   1.446   2.965 -2.7254  0.6096 -3.7289
  280PA     C1912485   0.963   1.315   2.815  0.5528 -0.0626  0.4607
  280PA     H9R12486   1.066   1.347   2.833  0.7641 -0.7427  0.5200
  280PA     H9S12487   0.964   1.206   2.805 -1.8850 -0.4152  2.8394
  280PA     C1812488   0.902   1.379   2.685 -0.2958  0.0253 -0.3952
  280PA     H8R12489   0.801   1.341   2.664 -0.5453 -0.0201  0.8376
  280PA     H8S12490   0.889   1.487   2.693  0.6049  0.3269 -2.3880
  280PA     C1712491   1.002   1.356   2.568 -0.8953 -0.0783  0.0610
  280PA     H7R12492   1.097   1.404   2.593 -1.1359 -0.2549  1.4089
  280PA     H7S12493   1.016   1.250   2.548  0.1432  0.6070 -3.5723
  280PA     C1612494   0.955   1.411   2.430 -0.0358 -0.8907  0.1063
  280PA     H6R12495   0.862   1.360   2.403 -1.0193  1.5610 -1.5002
  280PA     H6S12496   0.926   1.515   2.444  0.0662 -0.7610 -0.5827
  280PA     C1512497   1.054   1.389   2.317  0.7940  0.2163 -0.1650
  280PA     H5R12498   1.157   1.406   2.348  0.6433 -0.8481  1.0111
  280PA     H5S12499   1.042   1.281   2.302  1.2218  0.1987 -0.3869
  280PA     C1412500   1.006   1.473   2.193  0.0021 -0.0248  0.4251
  280PA     H4R12501   0.911   1.431   2.161  0.0643  0.5416 -0.5361
  280PA     H4S12502   0.993   1.576   2.225 -1.4503  0.3845 -1.3243
  280PA     C1312503   1.112   1.451   2.078  0.2814 -0.9264 -0.5687
  280PA     H3R12504   1.114   1.347   2.046 -0.3860 -0.8878 -0.7584
  280PA     H3S12505   1.083   1.513   1.993  0.6859 -0.0765 -0.0961
  280PA     C1212506   1.252   1.498   2.123  0.2307  0.1036 -0.5690
  280PA     H2R12507   1.268   1.601   2.156 -0.7772 -0.3615  1.5653
  280PA     H2S12508   1.286   1.445   2.212 -2.1332 -1.8022 -0.6866
  281PC     C1112509   1.350   1.474   2.011 -0.7519  0.0510 -0.2621
  281PC     O1212510   1.333   1.531   1.910 -1.0315  0.0452  1.1331
  281PC     O1112511   1.451   1.390   2.040 -0.6342  0.0883  0.5031
  281PC      C112512   1.559   1.370   1.943  0.3492  0.4294 -0.0909
  281PC      HR12513   1.556   1.436   1.855  1.1959  0.8157  0.1608
  281PC      HS12514   1.657   1.391   1.988  1.3685 -1.5074 -1.2516
  281PC      C212515   1.546   1.223   1.891  0.9591 -0.2585  0.1760
  281PC      HX12516   1.644   1.204   1.846  0.8838  2.6822 -1.4507
  281PC      C312517   1.435   1.216   1.782  0.0456 -0.3519 -0.2020
  281PC      HA12518   1.403   1.114   1.763  0.5316 -0.8448  1.4237
  281PC      HB12519   1.350   1.281   1.807 -0.9808 -0.8094 -2.2802
  281PC     O3112520   1.497   1.262   1.664 -0.4360  0.6706  1.0695
  281PC     P3112521   1.529   1.147   1.553 -0.1283 -0.0354 -0.0867
  281PC     O3212522   1.385   1.115   1.492 -0.4408 -0.2921  0.4694
  281PC     C3112523   1.303   1.216   1.432  0.0918  0.5720 -0.1429
  281PC     H1A12524   1.198   1.188   1.445  0.1279  0.3406 -0.3360
  281PC     H1B12525   1.323   1.301   1.498 -0.8047 -0.2825  1.2957
  281PC     C3212526   1.334   1.235   1.283 -0.5475  0.7376  0.0833
  281PC     H2A12527   1.443   1.245   1.276 -0.4448  0.4249  1.0488
  281PC     H2B12528   1.302   1.156   1.215 -3.1699  1.7000  0.0779
  281PC     N3112529   1.266   1.359   1.225 -0.3666 -0.3059  0.4873
  281PC     C3312530   1.123   1.321   1.198  0.0203  0.0033 -0.2595
  281PC     H3A12531   1.077   1.311   1.296 -1.5939  0.8758 -0.8936
  281PC     H3B12532   1.076   1.402   1.143  0.7415  0.3628 -0.3590
  281PC     H3C12533   1.118   1.232   1.135 -0.2716  0.2159 -0.5388
  281PC     C3412534   1.273   1.476   1.318 -0.1915 -0.7762 -1.0694
  281PC     H4A12535   1.236   1.455   1.418  0.9473  2.1774  0.0853
  281PC     H4B12536   1.377   1.509   1.323 -0.2292 -0.6961 -0.8298
  281PC     H4C12537   1.221   1.561   1.273 -2.0655 -1.2530  0.0635
  281PC     C3512538   1.339   1.406   1.098  0.7731 -0.1371  0.2279
  281PC     H5A12539   1.278   1.487   1.059  0.2074  0.8299  2.8987
  281PC     H5B12540   1.349   1.323   1.028  1.3953  1.3948 -1.5511
  281PC     H5C12541   1.436   1.444   1.132  0.1233  1.5440  0.2901
  281PC     O3312542   1.613   1.202   1.443 -1.1147  0.3068 -0.3316
  281PC     O3412543   1.565   1.016   1.623  0.6448  0.0241  0.8183
  281PC     O2112544   1.509   1.123   1.986 -0.2086 -0.4358  0.1083
  281PC     C2112545   1.603   1.075   2.071  0.3140  0.3134  0.1235
  281PC     O2212546   1.721   1.111   2.076 -0.3050  0.2062  0.3206
  282OL     C1212547   1.546   0.972   2.165 -0.0290 -0.6914 -0.4859
  282OL     H2R12548   1.518   0.888   2.101 -0.1457  0.5339 -2.0954
  282OL     H2S12549   1.463   1.023   2.213  0.5226 -1.5281  1.4669
  282OL     C1312550   1.644   0.926   2.283  0.2632  0.0121 -0.0870
  282OL     H3R12551   1.677   1.022   2.325 -1.7513  1.2005 -1.0662
  282OL     H3S12552   1.730   0.875   2.240  0.7494 -0.7693  1.7123
  282OL     C1412553   1.582   0.841   2.398  0.7740  0.4651  0.0889
  282OL     H4R12554   1.535   0.755   2.351  1.3510  0.2250 -0.0666
  282OL     H4S12555   1.509   0.896   2.458  0.8489  0.6899 -0.0260
  282OL     C1512556   1.691   0.782   2.489 -0.0490  0.0417  0.0955
  282OL     H5R12557   1.755   0.862   2.527 -1.6297  2.3926 -1.9021
  282OL     H5S12558   1.746   0.712   2.426 -2.5005 -1.8306 -0.1408
  282OL     C1612559   1.635   0.709   2.614  0.1968  0.1642  0.5702
  282OL     H6R12560   1.720   0.649   2.648  0.6879  1.7107  2.2450
  282OL     H6S12561   1.552   0.647   2.581  2.4748 -1.8164 -1.9357
  282OL     C1712562   1.598   0.812   2.714  0.6481 -0.0007 -0.3817
  282OL     H7R12563   1.531   0.890   2.677  0.9399  0.0225 -0.8578
  282OL     H7S12564   1.691   0.859   2.745 -0.3551  2.6336 -1.0866
  282OL     C1812565   1.521   0.737   2.829  0.2488  0.4291  0.0492
  282OL     H8R12566   1.569   0.653   2.879  1.2510  0.6886 -0.4466
  282OL     H8S12567   1.425   0.701   2.789  0.2408 -1.2856  1.4892
  282OL     C1912568   1.489   0.837   2.935 -0.1674  0.1983  0.0446
  282OL     H9R12569   1.527   0.936   2.910 -1.9976  0.5653 -1.5374
  282OL    C11012570   1.447   0.805   3.056  0.4837 -0.7101  0.4522
  282OL    H10R12571   1.434   0.884   3.130  1.0715 -1.4217  1.3305
  282OL    C11112572   1.394   0.670   3.103 -0.3945 -0.3575  0.0674
  282OL    H11R12573   1.369   0.611   3.014 -1.1108 -0.0968  0.0891
  282OL    H11S12574   1.305   0.680   3.165 -0.4329  0.7934 -0.1492
  282OL    C11212575   1.499   0.596   3.189 -0.2647 -0.2265 -0.7645
  282OL    H12R12576   1.536   0.655   3.273  1.4614 -2.0322 -0.1717
  282OL    H12S12577   1.583   0.593   3.120 -0.9918 -0.0312 -1.6794
  282OL    C11312578   1.466   0.455   3.243 -0.6519  0.8069  0.1913
  282OL    H13R12579   1.557   0.416   3.290  0.8433  0.8102 -2.5037
  282OL    H13S12580   1.448   0.402   3.149  0.5241 -0.2032  0.4996
  282OL    C11412581   1.342   0.450   3.339 -0.6840 -0.3773 -0.9098
  282OL    H14R12582   1.344   0.356   3.394 -1.1119  1.0723  1.7569
  282OL    H14S12583   1.251   0.468   3.280  0.2406  1.6709 -1.8265
  282OL    C11512584   1.370   0.548   3.456  0.2288 -0.1515  0.6524
  282OL    H15R12585   1.382   0.647   3.411 -0.4711 -1.0070 -1.5675
  282OL    H15S12586   1.459   0.523   3.513  0.5172  0.4812  0.4956
  282OL    C11612587   1.245   0.565   3.545 -0.4026 -0.4549  0.9137
  282OL    H16R12588   1.208   0.463   3.560  0.1221 -0.7957 -0.0313
  282OL    H16S12589   1.167   0.613   3.485  0.7945  0.0474 -0.2863
  282OL    C11712590   1.264   0.658   3.665  0.5168 -0.1001 -0.5270
  282OL    H17R12591   1.170   0.712   3.677  0.6684  0.1413 -0.4098
  282OL    H17S12592   1.339   0.735   3.643  1.0828 -0.2441  0.8011
  282OL    C11812593   1.308   0.591   3.795 -0.2320 -0.1245  1.2513
  282OL    H18R12594   1.407   0.545   3.793  0.0749  0.5410  1.0485
  282OL    H18S12595   1.231   0.521   3.829 -0.3002 -0.9682 -0.5368
  282OL    H18T12596   1.312   0.669   3.872 -1.4403  0.7061  0.5059
  283PA    C11612597   0.781   1.324   4.000  0.0514 -0.5163 -0.1469
  283PA    H16R12598   0.800   1.216   3.996 -0.5162 -0.6693  0.9018
  283PA    H16S12599   0.681   1.340   4.040  0.0476  1.2975 -0.8090
  283PA    H16T12600   0.858   1.377   4.057 -0.9050 -0.8107  1.4854
  283PA    C11512601   0.784   1.380   3.854 -0.3406 -0.3909 -0.7852
  283PA    H15R12602   0.693   1.349   3.802 -0.3489 -0.9996 -0.4216
  283PA    H15S12603   0.790   1.489   3.857 -2.4062 -0.1129 -3.3827
  283PA    C11412604   0.900   1.322   3.774  0.0009 -0.4209 -0.3407
  283PA    H14R12605   0.893   1.213   3.776 -1.0154 -0.3689  1.3191
  283PA    H14S12606   0.880   1.355   3.672  1.0069 -0.3856 -0.5338
  283PA    C11312607   1.033   1.377   3.821 -0.1900 -0.3116 -0.1021
  283PA    H13R12608   1.034   1.485   3.837 -2.6430 -0.0140 -1.4712
  283PA    H13S12609   1.048   1.333   3.920 -1.6998 -1.0201 -0.1539
  283PA    C11212610   1.149   1.334   3.727 -0.1140  0.5209  0.1063
  283PA    H12R12611   1.238   1.375   3.775  0.2909 -1.9451  1.6263
  283PA    H12S12612   1.158   1.225   3.735 -0.8030  0.4867  0.5052
  283PA    C11112613   1.138   1.365   3.578  0.2046  0.0543  0.0554
  283PA    H11R12614   1.222   1.311   3.534 -1.6576 -2.9819 -0.1031
  283PA    H11S12615   1.046   1.320   3.541  0.2575 -0.9587  1.0876
  283PA    C11012616   1.144   1.512   3.538 -0.3407 -0.0257  0.7192
  283PA    H10R12617   1.089   1.561   3.618 -0.5458 -0.8263  1.0774
  283PA    H10S12618   1.245   1.547   3.554 -0.6340  0.5302  1.3902
  283PA     C1912619   1.107   1.560   3.395  0.1148 -0.3666  0.3158
  283PA     H9R12620   1.004   1.536   3.367  0.3331 -1.1321  0.1409
  283PA     H9S12621   1.094   1.667   3.412 -0.4758 -0.3447 -0.2644
  283PA     C1812622   1.203   1.526   3.281 -0.7020  0.0971  0.1902
  283PA     H8R12623   1.291   1.591   3.284  1.0683 -2.1778  2.1470
  283PA     H8S12624   1.237   1.423   3.270  1.5988  0.8800 -0.7424
  283PA     C1712625   1.135   1.579   3.149 -0.4107  0.3606 -0.7844
  283PA     H7R12626   1.047   1.519   3.125 -1.2761  0.8069  1.0590
  283PA     H7S12627   1.104   1.682   3.168  2.6394  1.0326  1.1737
  283PA     C1612628   1.238   1.581   3.030  0.0875 -0.0355  0.6330
  283PA     H6R12629   1.324   1.647   3.043  1.1071 -1.0547 -0.7007
  283PA     H6S12630   1.277   1.480   3.017  1.4470  0.3822  1.2480
  283PA     C1512631   1.175   1.626   2.895  0.0867 -0.3461  0.6132
  283PA     H5R12632   1.253   1.626   2.818  0.7412  0.0156  1.2600
  283PA     H5S12633   1.096   1.557   2.863  1.0703  0.4392 -4.4531
  283PA     C1412634   1.116   1.766   2.901  0.7679  0.1370 -0.0603
  283PA     H4R12635   1.019   1.763   2.951  1.6824  0.4168  1.8082
  283PA     H4S12636   1.173   1.842   2.955  0.2592 -1.2368  2.5575
  283PA     C1312637   1.087   1.807   2.750 -0.0350  0.4304  0.4576
  283PA     H3R12638   1.182   1.834   2.703  0.1636  0.5609  0.9303
  283PA     H3S12639   1.043   1.729   2.687 -0.4964 -0.5011  1.8825
  283PA     C1212640   0.985   1.926   2.746 -0.6775  0.2618 -0.1641
  283PA     H2R12641   0.887   1.903   2.786 -0.7401  1.9085  0.7201
  283PA     H2S12642   1.030   1.999   2.813 -0.1958  2.2469 -2.5010
  284PC     C1112643   0.964   1.996   2.613 -0.1626 -0.7215 -0.7784
  284PC     O1212644   0.947   1.926   2.512 -0.4646  0.7104  0.2751
  284PC     O1112645   0.973   2.133   2.626 -0.6072 -1.0311 -0.2858
  284PC      C112646   0.951   2.224   2.517  0.0089  0.5184 -0.1115
  284PC      HR12647   0.885   2.182   2.440  0.6062  0.6589 -0.7151
  284PC      HS12648   0.902   2.308   2.567  1.0929  0.5522  0.9407
  284PC      C212649   1.079   2.264   2.447 -0.2586 -0.5335 -0.3414
  284PC      HX12650   1.060   2.341   2.371 -1.5842 -1.7516 -1.3183
  284PC      C312651   1.148   2.152   2.358  0.3728 -0.3550  0.2593
  284PC      HA12652   1.182   2.079   2.432 -0.8966  0.5781  1.8222
  284PC      HB12653   1.065   2.112   2.300 -0.3119 -0.3799  1.2330
  284PC     O3112654   1.254   2.194   2.276 -0.1245  0.2833  0.3366
  284PC     P3112655   1.225   2.266   2.138  0.2170  0.2880  0.1793
  284PC     O3212656   1.199   2.419   2.178 -0.0063  0.5289  0.1682
  284PC     C3112657   1.303   2.500   2.240  0.5792  0.7610  0.4734
  284PC     H1A12658   1.255   2.588   2.284 -0.2606  0.3988  0.3155
  284PC     H1B12659   1.349   2.447   2.323 -4.0448 -0.2616  2.7160
  284PC     C3212660   1.410   2.556   2.137  0.4155  0.5559 -0.6652
  284PC     H2A12661   1.492   2.594   2.197 -1.2676  2.1102  0.7703
  284PC     H2B12662   1.438   2.475   2.070 -1.2680  1.4987 -2.6331
  284PC     N3112663   1.363   2.662   2.042 -0.3526 -0.1130  0.4554
  284PC     C3312664   1.228   2.630   1.982  0.2085  0.2746  0.1606
  284PC     H3A12665   1.200   2.707   1.910  1.8739 -0.7111 -1.6321
  284PC     H3B12666   1.248   2.535   1.933  1.7040  0.4724  0.3323
  284PC     H3C12667   1.147   2.626   2.055  0.8002  1.6551  0.9470
  284PC     C3412668   1.360   2.790   2.116  0.0826 -0.2831 -0.3368
  284PC     H4A12669   1.465   2.804   2.142  0.4760  0.5111 -2.1680
  284PC     H4B12670   1.340   2.872   2.046  3.7483  0.3470 -0.8688
  284PC     H4C12671   1.284   2.785   2.194 -0.5784 -2.0990 -1.0509
  284PC     C3512672   1.463   2.676   1.933  0.0617  0.7627  0.4866
  284PC     H5A12673   1.553   2.714   1.981 -0.3878  0.2661  1.7758
  284PC     H5B12674   1.414   2.742   1.861 -0.1098 -0.7281 -0.8269
  284PC     H5C12675   1.483   2.581   1.883 -0.8321  1.0365 -0.4302
  284PC     O3312676   1.340   2.259   2.053 -0.2888  0.3066  0.3582
  284PC     O3412677   1.103   2.216   2.080  0.5550  0.0465 -0.1099
  284PC     O2112678   1.179   2.321   2.539  0.3067  0.2539  0.2456
  284PC     C2112679   1.141   2.432   2.609  0.1187  0.2577  0.3150
  284PC     O2212680   1.042   2.501   2.579  0.4129  0.5157 -0.2672
  285OL     C1212681   1.239   2.457   2.724  0.0585 -0.2409  0.4213
  285OL     H2R12682   1.203   2.543   2.780 -0.5141 -0.5693  0.5647
  285OL     H2S12683   1.335   2.475   2.675 -0.4971  0.2363 -0.5134
  285OL     C1312684   1.242   2.331   2.811 -0.8470  0.0692 -0.0491
  285OL     H3R12685   1.154   2.269   2.788 -0.3914 -0.1627 -1.2613
  285OL     H3S12686   1.246   2.350   2.918 -0.3793 -2.0906  0.3633
  285OL     C1412687   1.378   2.261   2.771  0.8000 -0.3382  0.6262
  285OL     H4R12688   1.468   2.314   2.803  0.7440 -0.4844  1.0351
  285OL     H4S12689   1.382   2.249   2.663  0.2781 -1.1550  0.6836
  285OL     C1512690   1.367   2.120   2.834  0.6647  0.2917  0.0628
  285OL     H5R12691   1.452   2.061   2.798  0.0094 -0.6464 -0.0023
  285OL     H5S12692   1.283   2.064   2.792  0.5617  0.0150  0.6376
  285OL     C1612693   1.368   2.124   2.988 -0.6829 -0.1046 -0.2083
  285OL     H6R12694   1.273   2.148   3.034 -0.6595 -0.2204 -0.0990
  285OL     H6S12695   1.436   2.203   3.022  0.4583 -1.3154  0.4467
  285OL     C1712696   1.408   1.984   3.043 -0.3119  0.7969 -0.3967
  285OL     H7R12697   1.506   1.962   3.000 -1.2704 -1.1244 -1.7081
  285OL     H7S12698   1.347   1.904   3.001  2.1570 -1.8813  0.7561
  285OL     C1812699   1.405   1.959   3.197 -0.6956 -0.2249  0.4681
  285OL     H8R12700   1.485   2.021   3.239  1.4681 -1.6677 -1.2990
  285OL     H8S12701   1.427   1.856   3.226 -3.1188 -0.8056  0.4425
  285OL     C1912702   1.274   1.985   3.255 -0.3862 -0.2209 -0.0695
  285OL     H9R12703   1.202   1.906   3.236  0.1885 -0.6367 -0.5632
  285OL    C11012704   1.245   2.096   3.326  0.5414  0.0507  0.2752
  285OL    H10R12705   1.148   2.121   3.369 -0.1699  0.3396 -1.4274
  285OL    C11112706   1.350   2.202   3.359  0.4364 -0.7300  0.5761
  285OL    H11R12707   1.299   2.296   3.335  0.5797 -1.2620 -2.0869
  285OL    H11S12708   1.443   2.210   3.302  0.6594  4.9893  1.1891
  285OL    C11212709   1.361   2.210   3.507  0.4265  0.0830 -0.1617
  285OL    H12R12710   1.383   2.115   3.555  0.3109  0.2932  0.3160
  285OL    H12S12711   1.272   2.252   3.554  0.9335  1.8625 -0.7019
  285OL    C11312712   1.475   2.316   3.541 -0.0326  0.6186  0.3716
  285OL    H13R12713   1.478   2.396   3.466 -0.0233  2.0392  1.8451
  285OL    H13S12714   1.566   2.256   3.529 -0.3379  0.3076 -0.4722
  285OL    C11412715   1.462   2.381   3.680 -0.1455 -0.2702 -0.2216
  285OL    H14R12716   1.359   2.394   3.714  0.0420 -0.3586  0.3944
  285OL    H14S12717   1.504   2.481   3.676 -1.5731  0.3218 -2.1394
  285OL    C11512718   1.559   2.306   3.781 -0.7039  0.4175 -0.1503
  285OL    H15R12719   1.661   2.305   3.742 -0.9947  3.8490 -1.3141
  285OL    H15S12720   1.521   2.205   3.800 -0.6440 -0.0233 -2.1475
  285OL    C11612721   1.559   2.372   3.917  0.7813 -0.1751  0.2170
  285OL    H16R12722   1.456   2.384   3.951 -0.1073 -1.1829 -1.9228
  285OL    H16S12723   1.602   2.471   3.899 -0.4179  0.0270 -1.7293
  285OL    C11712724   1.636   2.290   4.019  0.4476  0.7404  0.3992
  285OL    H17R12725   1.598   2.188   4.013  0.7897  0.4980  1.9420
  285OL    H17S12726   1.611   2.324   4.120  0.4257 -0.1687  0.7105
  285OL    C11812727   1.785   2.303   4.000 -0.1104  0.4465 -0.3073
  285OL    H18R12728   1.822   2.400   4.031  2.3116 -1.1592  2.3318
  285OL    H18S12729   1.802   2.289   3.893 -2.1817  1.3671 -0.8044
  285OL    H18T12730   1.838   2.226   4.056  0.5849  0.8599 -0.3872
  286PA    C11612731   1.864   4.069   3.701 -0.4717  0.3363 -0.5088
  286PA    H16R12732   1.827   4.036   3.604 -1.9919 -0.2803  0.2422
  286PA    H16S12733   1.793   4.139   3.746 -2.6793 -1.6955 -0.6591
  286PA    H16T12734   1.854   3.985   3.770 -0.9457  1.1089  0.4021
  286PA    C11512735   2.004   4.126   3.702 -0.7474  0.6377  0.0709
  286PA    H15R12736   2.004   4.213   3.635  0.8779 -0.5414 -1.5592
  286PA    H15S12737   2.029   4.170   3.798 -1.6181  2.5250 -0.5186
  286PA    C11412738   2.112   4.026   3.667 -0.1400  0.5506  0.1414
  286PA    H14R12739   2.199   4.092   3.671 -0.5911  1.2041 -0.5557
  286PA    H14S12740   2.125   3.946   3.739  2.6122  0.1532 -0.6863
  286PA    C11312741   2.099   3.974   3.517  0.2981 -0.2359 -0.6703
  286PA    H13R12742   2.008   3.914   3.501  1.0411 -1.3695 -0.7977
  286PA    H13S12743   2.095   4.059   3.448  0.6029  0.7826  0.5396
  286PA    C11212744   2.216   3.883   3.463 -0.0659  0.0703 -0.5459
  286PA    H12R12745   2.308   3.941   3.463  1.0676 -1.6223  1.1304
  286PA    H12S12746   2.222   3.805   3.538 -2.1315 -0.8702 -1.2684
  286PA    C11112747   2.184   3.810   3.329  0.6004 -0.3843 -0.6361
  286PA    H11R12748   2.238   3.715   3.322 -1.1201 -1.5080  0.5557
  286PA    H11S12749   2.079   3.784   3.337 -0.1196  2.6625  2.0771
  286PA    C11012750   2.218   3.907   3.214  0.7677  0.2052 -0.3282
  286PA    H10R12751   2.155   3.994   3.237  0.8636  0.0241  0.6437
  286PA    H10S12752   2.322   3.938   3.217  0.7697  0.1600  2.3589
  286PA     C1912753   2.171   3.850   3.083  0.3530  0.1499 -0.0689
  286PA     H9R12754   2.185   3.742   3.081 -1.0553 -0.0605  0.0367
  286PA     H9S12755   2.063   3.863   3.076  0.0609 -2.1160 -0.5943
  286PA     C1812756   2.236   3.907   2.955  0.0635 -0.5144  0.0254
  286PA     H8R12757   2.202   4.011   2.949  0.6238 -0.2919  0.6591
  286PA     H8S12758   2.345   3.905   2.966  0.0364  1.1132  0.9336
  286PA     C1712759   2.195   3.810   2.841  0.1402 -0.2203  0.1291
  286PA     H7R12760   2.213   3.706   2.870 -2.3865 -0.9064 -0.4396
  286PA     H7S12761   2.086   3.809   2.834 -0.0078  2.3591  1.2072
  286PA     C1612762   2.258   3.843   2.703  0.1552 -0.7686  0.3651
  286PA     H6R12763   2.240   3.951   2.694 -3.0674 -1.2641 -0.4705
  286PA     H6S12764   2.364   3.817   2.701  0.2321 -0.4913  0.6972
  286PA     C1512765   2.192   3.774   2.580 -0.3427 -0.3836  0.3915
  286PA     H5R12766   2.226   3.671   2.570 -0.2288 -0.3181  0.0658
  286PA     H5S12767   2.083   3.776   2.584 -0.4413  3.3751 -0.1279
  286PA     C1412768   2.237   3.838   2.450 -0.8171 -0.2704 -0.4305
  286PA     H4R12769   2.239   3.948   2.450  1.1724 -0.2522  0.6091
  286PA     H4S12770   2.343   3.814   2.439 -0.9759 -1.0617 -0.2684
  286PA     C1312771   2.151   3.795   2.329 -0.0639  0.2334 -0.7282
  286PA     H3R12772   2.174   3.691   2.306  0.6480  0.3557 -0.6024
  286PA     H3S12773   2.045   3.807   2.353  0.0555 -1.5743  0.8544
  286PA     C1212774   2.179   3.875   2.202  0.1171 -0.4311 -0.8408
  286PA     H2R12775   2.151   3.980   2.203 -3.3550 -1.1465  2.8256
  286PA     H2S12776   2.286   3.858   2.187 -0.0009 -0.5516 -1.5826
  287PC     C1112777   2.118   3.813   2.076  0.2134  0.0351 -0.3619
  287PC     O1212778   2.049   3.716   2.064 -0.6126  0.3149  0.1281
  287PC     O1112779   2.147   3.891   1.965  0.3494  0.7769  0.2088
  287PC      C112780   2.130   3.829   1.832  0.0256 -0.3484  0.6641
  287PC      HR12781   2.145   3.721   1.840 -0.8044 -0.3618  2.7234
  287PC      HS12782   2.027   3.849   1.801  0.0244  0.6358  1.2587
  287PC      C212783   2.233   3.890   1.735 -0.3774 -0.1121  0.1047
  287PC      HX12784   2.231   3.999   1.746 -0.3939 -0.3670  3.8611
  287PC      C312785   2.217   3.850   1.583 -0.0818  0.2577 -1.0519
  287PC      HA12786   2.134   3.916   1.557  0.0508  1.6165  1.6155
  287PC      HB12787   2.303   3.870   1.519 -0.1898  0.7738 -1.0375
  287PC     O3112788   2.173   3.707   1.566  0.0331  0.1521 -0.2334
  287PC     P3112789   2.199   3.640   1.417  0.4941  0.2701 -0.5885
  287PC     O3212790   2.087   3.701   1.318  0.3978  0.3853 -0.3486
  287PC     C3112791   1.949   3.696   1.361  0.4325  0.1145  0.2002
  287PC     H1A12792   1.927   3.599   1.407 -1.3557  1.4024  2.2806
  287PC     H1B12793   1.938   3.780   1.431  0.9391  0.9882 -0.7371
  287PC     C3212794   1.862   3.700   1.230 -0.0405 -0.5371 -0.2987
  287PC     H2A12795   1.897   3.766   1.151  1.4157 -2.1102 -1.0329
  287PC     H2B12796   1.875   3.597   1.197  2.4096 -0.6569  0.8611
  287PC     N3112797   1.718   3.728   1.245  0.0825 -0.2080 -0.2939
  287PC     C3312798   1.651   3.746   1.116  0.3493  0.1894  0.1474
  287PC     H3A12799   1.544   3.763   1.127  0.3764  1.3440 -1.0120
  287PC     H3B12800   1.701   3.830   1.068 -0.7411 -0.1842 -1.7866
  287PC     H3C12801   1.674   3.649   1.071  1.1924  0.9182 -1.0596
  287PC     C3412802   1.651   3.631   1.332  0.1908 -0.1687  0.0353
  287PC     H4A12803   1.717   3.600   1.413 -0.6308 -0.6376  0.5405
  287PC     H4B12804   1.555   3.675   1.361  0.2803 -0.3175  0.5561
  287PC     H4C12805   1.622   3.542   1.275  1.0619 -0.4502  0.0224
  287PC     C3512806   1.714   3.864   1.303 -0.0607 -0.7990  0.0935
  287PC     H5A12807   1.606   3.877   1.311  0.2831  2.4520  1.1954
  287PC     H5B12808   1.760   3.943   1.243  0.8904 -2.2029 -1.0827
  287PC     H5C12809   1.753   3.862   1.405 -3.4817 -3.0479  1.5364
  287PC     O3312810   2.336   3.669   1.374 -0.1310 -0.5034  0.0436
  287PC     O3412811   2.164   3.494   1.430 -0.8392  0.0007  0.5300
  287PC     O2112812   2.363   3.826   1.778  0.5838  0.3669 -0.7353
  287PC     C2112813   2.468   3.903   1.805 -0.1248  0.1708 -0.0959
  287PC     O2212814   2.466   4.024   1.823  0.2472  0.0030  0.2880
  288OL     C1212815   2.595   3.826   1.827  0.7268  0.4661  0.3897
  288OL     H2R12816   2.680   3.894   1.821  1.6833 -0.1119  4.4875
  288OL     H2S12817   2.594   3.744   1.754  0.5606 -1.3747  2.3631
  288OL     C1312818   2.596   3.755   1.961  0.2219  0.3420 -0.6116
  288OL     H3R12819   2.681   3.687   1.956 -1.7225 -2.4251  1.1904
  288OL     H3S12820   2.509   3.689   1.966  2.1081 -2.4964 -2.1958
  288OL     C1412821   2.592   3.851   2.084 -0.2171  0.3435  0.0225
  288OL     H4R12822   2.498   3.906   2.091 -0.4763 -0.2459  1.5780
  288OL     H4S12823   2.676   3.921   2.084 -0.5762  0.7787 -0.3358
  288OL     C1512824   2.600   3.763   2.203 -0.0609  0.8621  0.6138
  288OL     H5R12825   2.684   3.693   2.194  1.1754  1.7592  3.9039
  288OL     H5S12826   2.509   3.702   2.209 -0.3540  1.2575  0.3162
  288OL     C1612827   2.617   3.846   2.330 -0.3886  1.1063 -0.4335
  288OL     H6R12828   2.530   3.913   2.332 -1.7965 -0.6701  0.7278
  288OL     H6S12829   2.710   3.904   2.332  0.2054  0.3217  4.0739
  288OL     C1712830   2.611   3.755   2.453 -0.3395  0.2153  0.0130
  288OL     H7R12831   2.562   3.658   2.437  1.0323 -1.2100  3.4542
  288OL     H7S12832   2.564   3.817   2.530  0.1671 -0.6131  1.0138
  288OL     C1812833   2.754   3.721   2.512 -0.0978 -0.3453  0.3848
  288OL     H8R12834   2.792   3.815   2.553  1.3987 -0.7039 -0.0911
  288OL     H8S12835   2.822   3.697   2.430  0.8137  0.2048  0.9481
  288OL     C1912836   2.756   3.610   2.614 -0.1708  0.9351  0.0833
  288OL     H9R12837   2.763   3.510   2.572  1.2562  1.8837 -2.1433
  288OL    C11012838   2.758   3.623   2.745  0.7208  0.2980 -1.0652
  288OL    H10R12839   2.758   3.533   2.806  1.9105  0.5489 -0.6560
  288OL    C11112840   2.752   3.753   2.825 -0.4447 -0.0918  0.2963
  288OL    H11R12841   2.715   3.836   2.764  1.1055  0.8096  0.5365
  288OL    H11S12842   2.846   3.773   2.876  0.0744 -1.3933 -0.1153
  288OL    C11212843   2.658   3.734   2.943 -0.4623 -0.2351 -0.4610
  288OL    H12R12844   2.695   3.646   2.996  1.5954  0.7673 -0.1443
  288OL    H12S12845   2.556   3.714   2.908 -0.1885  0.0246 -1.4404
  288OL    C11312846   2.658   3.849   3.047  0.0662 -0.2213 -0.6283
  288OL    H13R12847   2.616   3.937   2.999 -1.0683  0.4235  1.4411
  288OL    H13S12848   2.762   3.881   3.062 -0.4019  1.1182 -0.0946
  288OL    C11412849   2.577   3.830   3.177 -0.3799 -0.0394  0.4707
  288OL    H14R12850   2.488   3.773   3.150 -0.7819  1.5091 -1.7363
  288OL    H14S12851   2.551   3.929   3.213 -0.3660 -0.0670  0.5554
  288OL    C11512852   2.649   3.752   3.286  0.0046 -0.2267  0.2039
  288OL    H15R12853   2.739   3.810   3.308  0.6581 -0.8691 -0.6912
  288OL    H15S12854   2.673   3.654   3.242  2.5216  1.2583 -2.0480
  288OL    C11612855   2.566   3.732   3.412  0.0058  0.8543 -0.1976
  288OL    H16R12856   2.488   3.660   3.388 -1.2572  2.4572 -1.0688
  288OL    H16S12857   2.517   3.819   3.457  0.2240  1.3119 -0.8398
  288OL    C11712858   2.647   3.677   3.533 -0.2905 -0.4464  0.2499
  288OL    H17R12859   2.721   3.751   3.562 -0.0297 -0.5173 -0.2030
  288OL    H17S12860   2.685   3.578   3.503 -0.0455 -0.6103  1.0870
  288OL    C11812861   2.571   3.638   3.656 -0.0064 -0.2981  0.2273
  288OL    H18R12862   2.477   3.589   3.631 -0.4882  0.4575  0.4910
  288OL    H18S12863   2.552   3.729   3.715  0.6224  0.2083 -0.3281
  288OL    H18T12864   2.625   3.570   3.722  0.9456 -0.4428 -0.6751
  289PA    C11612865   2.792   8.517   3.918 -0.1728  0.2015 -0.6163
  289PA    H16R12866   2.805   8.613   3.967  1.1152 -0.5062  0.5083
  289PA    H16S12867   2.883   8.460   3.937 -1.5911 -2.0584 -0.1582
  289PA    H16T12868   2.714   8.458   3.968  1.4265 -1.1727  0.3743
  289PA    C11512869   2.755   8.542   3.769  0.2944  0.1682 -0.0774
  289PA    H15R12870   2.712   8.451   3.728 -0.5390  0.8680 -0.7760
  289PA    H15S12871   2.678   8.619   3.778  0.9535  0.6469  2.3347
  289PA    C11412872   2.879   8.581   3.686  0.2816  0.0139 -0.5037
  289PA    H14R12873   2.924   8.671   3.728 -2.3717  0.3403  1.9730
  289PA    H14S12874   2.961   8.509   3.692  0.8057  0.5977 -0.5022
  289PA    C11312875   2.837   8.596   3.544  0.1781 -0.2001 -0.1134
  289PA    H13R12876   2.926   8.596   3.480 -1.5753 -1.3815 -2.7307
  289PA    H13S12877   2.783   8.506   3.514 -2.8600  1.5469 -0.3103
  289PA    C11212878   2.764   8.723   3.511  0.5409 -0.2629  0.9435
  289PA    H12R12879   2.659   8.720   3.539  0.1914  1.2827 -0.0776
  289PA    H12S12880   2.818   8.806   3.556 -0.7249  0.5657  0.9654
  289PA    C11112881   2.770   8.737   3.356 -0.2612  0.0660  0.6442
  289PA    H11R12882   2.875   8.737   3.326 -0.7925 -1.4769 -1.3999
  289PA    H11S12883   2.734   8.644   3.313  0.2790  1.6277 -3.6710
  289PA    C11012884   2.695   8.857   3.307  0.0698  0.2940 -0.0241
  289PA    H10R12885   2.589   8.855   3.335  0.0765  0.9841  0.0629
  289PA    H10S12886   2.733   8.944   3.361  0.0024  0.3865 -0.1244
  289PA     C1912887   2.729   8.880   3.162  0.2734  0.2206  0.3031
  289PA     H9R12888   2.837   8.885   3.149  0.2335 -0.9906 -0.6152
  289PA     H9S12889   2.707   8.787   3.109  0.8356 -0.3493  1.0515
  289PA     C1812890   2.649   8.994   3.094  0.0138  0.6135  1.1977
  289PA     H8R12891   2.542   8.990   3.118 -0.4573  1.6234 -0.5464
  289PA     H8S12892   2.698   9.088   3.116 -0.1959  1.0855 -0.2543
  289PA     C1712893   2.657   8.973   2.934 -0.0517 -0.7884  0.3206
  289PA     H7R12894   2.645   9.076   2.898  0.3647 -0.6636  0.5300
  289PA     H7S12895   2.757   8.942   2.905 -0.0683 -0.5689  0.0213
  289PA     C1612896   2.558   8.877   2.867 -0.3531  0.1343 -0.0145
  289PA     H6R12897   2.582   8.775   2.896  0.6241  0.3282 -0.1159
  289PA     H6S12898   2.459   8.893   2.910 -0.5716  0.0433 -0.4781
  289PA     C1512899   2.554   8.907   2.718  0.4374  0.6510 -0.4956
  289PA     H5R12900   2.563   9.015   2.709  0.9219  0.8666  1.9372
  289PA     H5S12901   2.651   8.871   2.683 -0.2838 -3.0465  0.8258
  289PA     C1412902   2.445   8.836   2.632 -0.2554 -0.7835 -0.5622
  289PA     H4R12903   2.477   8.862   2.531  0.1517 -1.0449 -0.5036
  289PA     H4S12904   2.455   8.727   2.640 -0.2862 -0.8243 -1.0197
  289PA     C1312905   2.304   8.885   2.657  0.4341 -0.2610 -0.2472
  289PA     H3R12906   2.233   8.826   2.598 -0.0220 -0.9277  0.9485
  289PA     H3S12907   2.292   8.873   2.764 -2.1658 -0.0993 -0.4627
  289PA     C1212908   2.277   9.032   2.628 -0.1320  0.3841 -0.1632
  289PA     H2R12909   2.188   9.049   2.689  0.6604 -0.7668  1.3833
  289PA     H2S12910   2.352   9.100   2.669  0.1989  0.4241 -0.8282
  290PC     C1112911   2.241   9.063   2.484 -0.5316  0.1157 -0.4751
  290PC     O1212912   2.229   8.972   2.400 -0.6077 -0.0503  0.1043
  290PC     O1112913   2.235   9.193   2.459  0.0871 -0.2659 -0.5127
  290PC      C112914   2.190   9.237   2.330 -1.2714  0.2598 -0.8627
  290PC      HR12915   2.224   9.340   2.317 -1.4102  0.5025  0.5169
  290PC      HS12916   2.240   9.172   2.259 -0.7376 -0.5590  0.2288
  290PC      C212917   2.036   9.227   2.311 -0.2746  0.6391  0.2892
  290PC      HX12918   1.998   9.125   2.322 -2.0572  1.4080  1.6790
  290PC      C312919   1.992   9.302   2.183  0.1246  0.1779 -0.5452
  290PC      HA12920   1.882   9.296   2.180  0.1600 -0.3669 -0.7530
  290PC      HB12921   2.023   9.405   2.203 -1.5890  0.6857 -0.3412
  290PC     O3112922   2.052   9.261   2.060  0.0218  0.3698  0.2756
  290PC     P3112923   2.011   9.127   1.980  0.2230 -0.3916  0.0352
  290PC     O3212924   2.066   8.998   2.066 -0.0751 -0.0535  0.8411
  290PC     C3112925   2.207   8.954   2.048  1.0310 -0.5955 -0.8725
  290PC     H1A12926   2.240   8.967   1.944 -0.9562 -0.0075 -1.4846
  290PC     H1B12927   2.274   9.028   2.091 -0.8724  2.0821 -2.2087
  290PC     C3212928   2.225   8.820   2.112  0.3967  0.4920  1.0893
  290PC     H2A12929   2.196   8.827   2.217  0.4420 -2.0151  1.3182
  290PC     H2B12930   2.156   8.747   2.072  1.5806  0.4286 -0.9873
  290PC     N3112931   2.364   8.758   2.114  0.6437 -0.8254  0.3757
  290PC     C3312932   2.369   8.636   2.195 -0.3874 -0.2757 -1.2700
  290PC     H3A12933   2.308   8.558   2.149 -1.9710  1.0759 -1.5496
  290PC     H3B12934   2.474   8.607   2.193  0.5100  2.7165 -2.0180
  290PC     H3C12935   2.343   8.667   2.296  4.2481 -0.3440  0.1505
  290PC     C3412936   2.411   8.718   1.983 -0.2413  0.3023  0.0085
  290PC     H4A12937   2.494   8.649   1.994 -0.6475 -0.4877 -1.5780
  290PC     H4B12938   2.324   8.672   1.935 -0.0715  0.3420 -0.3361
  290PC     H4C12939   2.446   8.796   1.915  3.8331 -2.4427 -1.4470
  290PC     C3512940   2.464   8.850   2.176  0.0494  0.2468 -0.4159
  290PC     H5A12941   2.561   8.799   2.184 -1.3726 -2.4519  0.6535
  290PC     H5B12942   2.424   8.871   2.275 -3.2153  1.5702 -1.8903
  290PC     H5C12943   2.471   8.946   2.124 -0.1538  0.4509 -0.0612
  290PC     O3312944   1.865   9.125   1.967  0.4528  0.4848 -0.4867
  290PC     O3412945   2.086   9.142   1.859 -0.0100  0.2659  0.0335
  290PC     O2112946   1.973   9.304   2.417  0.2333 -0.3719  0.1426
  290PC     C2112947   1.945   9.245   2.539 -0.6645 -0.4661  0.0332
  290PC     O2212948   1.940   9.130   2.566  0.1630  0.1328  0.2408
  291OL     C1212949   1.947   9.349   2.657 -0.5611 -0.9543  0.2145
  291OL     H2R12950   1.935   9.448   2.613  0.9100 -1.8338 -2.3925
  291OL     H2S12951   2.043   9.345   2.709 -0.9557  1.7279  1.2801
  291OL     C1312952   1.828   9.327   2.758 -0.0621 -0.1074  0.3162
  291OL     H3R12953   1.832   9.224   2.793  1.3091 -0.5586 -1.0444
  291OL     H3S12954   1.737   9.339   2.699 -1.2311  1.6007  2.3271
  291OL     C1412955   1.825   9.412   2.883  0.0788  0.0034  0.0559
  291OL     H4R12956   1.818   9.518   2.861 -0.2189  0.3232  1.5372
  291OL     H4S12957   1.926   9.398   2.923 -0.1153 -1.6763  0.0716
  291OL     C1512958   1.710   9.362   2.982 -0.1804 -0.2338 -0.4611
  291OL     H5R12959   1.701   9.420   3.074  0.6881 -1.6032  0.5091
  291OL     H5S12960   1.733   9.264   3.024 -2.5765 -1.3712 -1.5718
  291OL     C1612961   1.571   9.346   2.924  0.4772 -0.5123  0.0611
  291OL     H6R12962   1.502   9.332   3.008 -0.5775 -1.0960 -0.8776
  291OL     H6S12963   1.571   9.260   2.857 -0.0984  0.2018 -0.8581
  291OL     C1712964   1.521   9.465   2.840  0.0608 -0.1812 -0.1284
  291OL     H7R12965   1.577   9.476   2.747  0.6751  0.0105  0.2580
  291OL     H7S12966   1.532   9.558   2.896 -0.8578  0.5542 -1.1294
  291OL     C1812967   1.375   9.449   2.799  0.2909 -0.1046  0.3195
  291OL     H8R12968   1.367   9.363   2.733  0.1778  0.1444  0.0093
  291OL     H8S12969   1.354   9.534   2.733 -0.4011 -0.5430 -0.0377
  291OL     C1912970   1.272   9.436   2.908 -1.2639  0.8045 -0.3121
  291OL     H9R12971   1.292   9.356   2.979  0.2475  0.8358 -0.6538
  291OL    C11012972   1.153   9.502   2.913  0.2199  0.1153  0.0078
  291OL    H10R12973   1.086   9.473   2.994  1.4860  1.7259  1.7266
  291OL    C11112974   1.114   9.622   2.832 -0.6070  0.0960 -0.3114
  291OL    H11R12975   1.202   9.678   2.801  0.5486  0.4244  3.1450
  291OL    H11S12976   1.052   9.688   2.893 -2.4978 -2.7417  1.0173
  291OL    C11212977   1.036   9.575   2.700 -0.5754  0.3821 -0.6663
  291OL    H12R12978   0.963   9.503   2.737  0.9979 -1.3691 -0.7765
  291OL    H12S12979   1.112   9.525   2.638  1.6603  0.8014  1.5550
  291OL    C11312980   0.961   9.685   2.618  0.2409 -0.0950 -0.1718
  291OL    H13R12981   0.894   9.635   2.547 -0.9302 -0.8824  1.4072
  291OL    H13S12982   1.028   9.751   2.564 -0.9554  0.5966 -0.8562
  291OL    C11412983   0.873   9.776   2.713  0.5921  0.6037 -0.7004
  291OL    H14R12984   0.936   9.837   2.779 -0.9328 -0.0892  1.5408
  291OL    H14S12985   0.816   9.713   2.781 -5.2567  1.3611 -4.1607
  291OL    C11512986   0.778   9.867   2.640  0.6898  0.1350  1.2707
  291OL    H15R12987   0.700   9.804   2.596  1.2113  0.5030 -0.2492
  291OL    H15S12988   0.825   9.925   2.561  0.3371  0.0378  0.9899
  291OL    C11612989   0.721   9.973   2.732  1.1043  0.7105 -0.0943
  291OL    H16R12990   0.687   9.923   2.823 -0.0987  1.6028 -0.0169
  291OL    H16S12991   0.641  10.041   2.699  1.2618  0.6963 -0.5087
  291OL    C11712992   0.822  10.074   2.792 -0.2687  0.8222 -0.7033
  291OL    H17R12993   0.911  10.027   2.836 -0.7670  0.1608 -0.3872
  291OL    H17S12994   0.779  10.144   2.864  1.0236 -0.2978  1.2789
  291OL    C11812995   0.878  10.160   2.684  0.1351  0.0949 -0.2493
  291OL    H18R12996   0.949  10.109   2.620  0.7093  0.1706  0.3111
  291OL    H18S12997   0.940  10.236   2.733  3.0123 -2.4844  0.4002
  291OL    H18T12998   0.794  10.211   2.637  0.2160  2.5006  1.9426
  292PA    C11612999   2.480   5.483   4.051 -0.5895  0.0300 -0.7500
  292PA    H16R13000   2.410   5.540   4.112  1.1047 -0.6845  2.0548
  292PA    H16S13001   2.543   5.441   4.129 -2.0786 -1.9291 -0.5231
  292PA    H16T13002   2.432   5.395   4.006  0.9955 -1.7586  0.8467
  292PA    C11513003   2.569   5.557   3.943  0.0531 -0.0516  0.0290
  292PA    H15R13004   2.635   5.477   3.908 -1.2743 -1.0858 -0.1849
  292PA    H15S13005   2.497   5.581   3.865  0.3865  0.7405 -0.0457
  292PA    C11413006   2.658   5.666   3.997 -0.3393  0.5889 -0.2025
  292PA    H14R13007   2.600   5.747   4.044  1.6183  1.0775  1.5235
  292PA    H14S13008   2.717   5.622   4.078 -0.0849  1.5537  0.1646
  292PA    C11313009   2.753   5.721   3.887  0.5452 -0.4105  0.1025
  292PA    H13R13010   2.817   5.795   3.935 -1.3331  1.8510 -0.6909
  292PA    H13S13011   2.818   5.637   3.862  0.5293 -0.0174 -1.3608
  292PA    C11213012   2.679   5.782   3.761 -0.1923  0.1074 -0.6369
  292PA    H12R13013   2.587   5.731   3.730 -0.6849  0.6891 -0.1567
  292PA    H12S13014   2.658   5.885   3.789  0.6056 -0.0713  0.6888
  292PA    C11113015   2.770   5.795   3.633  0.0243 -0.2323 -0.0691
  292PA    H11R13016   2.858   5.851   3.665 -0.0719 -0.4427  0.5895
  292PA    H11S13017   2.813   5.699   3.604 -0.5051  0.1684 -2.3835
  292PA    C11013018   2.701   5.874   3.514 -0.1937  0.5566  0.3070
  292PA    H10R13019   2.612   5.813   3.494  1.1107 -1.0500 -0.9522
  292PA    H10S13020   2.689   5.976   3.551 -0.9377  0.2916  0.8290
  292PA     C1913021   2.787   5.879   3.378  0.0088 -1.0569 -0.3931
  292PA     H9R13022   2.764   5.971   3.324 -2.2686 -1.2769  0.1234
  292PA     H9S13023   2.888   5.896   3.415 -1.6143  2.0836  3.3016
  292PA     C1813024   2.782   5.743   3.300 -0.6820  0.1140 -0.0393
  292PA     H8R13025   2.862   5.683   3.344  0.3972  2.2045  0.9881
  292PA     H8S13026   2.691   5.692   3.333 -1.2658  1.5360  0.6493
  292PA     C1713027   2.794   5.749   3.149  0.0268  0.4148 -0.1176
  292PA     H7R13028   2.716   5.813   3.108 -0.9610 -1.4116 -1.2447
  292PA     H7S13029   2.889   5.797   3.127  0.3336 -0.2263 -0.2117
  292PA     C1613030   2.787   5.604   3.077  0.1677 -0.4570 -0.0469
  292PA     H6R13031   2.860   5.539   3.126 -1.3088 -0.8543  1.7789
  292PA     H6S13032   2.687   5.562   3.090  0.4570 -0.8102  1.2229
  292PA     C1513033   2.823   5.611   2.928  0.4761 -0.0718 -0.5348
  292PA     H5R13034   2.756   5.678   2.873  2.3036  0.1973 -2.5800
  292PA     H5S13035   2.922   5.656   2.920  0.8386 -0.9236 -0.9165
  292PA     C1413036   2.826   5.468   2.856  0.1212 -0.8099  0.1818
  292PA     H4R13037   2.904   5.464   2.780 -0.9975 -0.5338 -1.0172
  292PA     H4S13038   2.831   5.394   2.936  0.2977 -1.0700 -0.0656
  292PA     C1313039   2.691   5.439   2.794 -0.0323  0.0216 -0.3120
  292PA     H3R13040   2.701   5.343   2.744  0.5870 -0.7480  1.2143
  292PA     H3S13041   2.622   5.427   2.877  0.3493  2.3332  0.4234
  292PA     C1213042   2.629   5.543   2.697  1.2201 -0.2970  0.5037
  292PA     H2R13043   2.583   5.620   2.759  0.5046  1.7734 -2.4516
  292PA     H2S13044   2.696   5.596   2.630 -0.0100 -0.0734 -0.5776
  293PC     C1113045   2.518   5.477   2.610  0.4909 -0.1710 -0.0110
  293PC     O1213046   2.539   5.383   2.537 -0.8160  0.7705 -0.0040
  293PC     O1113047   2.397   5.536   2.617 -1.0205 -0.2441  0.3747
  293PC      C113048   2.296   5.501   2.524  0.2255 -0.3041  0.2757
  293PC      HR13049   2.226   5.584   2.534  1.2638  0.6421 -0.1660
  293PC      HS13050   2.329   5.509   2.420  0.7134  0.0237  0.4537
  293PC      C213051   2.229   5.362   2.564  0.2521  0.2095  0.3463
  293PC      HX13052   2.304   5.283   2.556 -0.3210 -0.1920 -1.7928
  293PC      C313053   2.112   5.314   2.469 -0.1671  0.1822  0.2564
  293PC      HA13054   2.081   5.220   2.515 -1.4215  0.9871  1.1268
  293PC      HB13055   2.028   5.383   2.458  1.0494  1.6861  0.0517
  293PC     O3113056   2.167   5.266   2.338 -0.1401 -0.2439  0.1946
  293PC     P3113057   2.189   5.359   2.208 -0.4893  0.1507  0.4391
  293PC     O3213058   2.342   5.416   2.207 -0.5942  0.3012  0.3963
  293PC     C3113059   2.458   5.326   2.175 -0.0287  0.1333  0.1403
  293PC     H1A13060   2.500   5.304   2.274  2.9056 -1.0298 -1.2290
  293PC     H1B13061   2.434   5.227   2.135 -0.0450  0.9672 -2.0073
  293PC     C3213062   2.562   5.406   2.087 -0.1640  0.6105 -0.3240
  293PC     H2A13063   2.575   5.500   2.141  1.6252  0.6591 -0.7653
  293PC     H2B13064   2.663   5.366   2.099  0.0257  0.4258 -2.1983
  293PC     N3113065   2.545   5.446   1.942 -0.1685 -0.3240  0.1616
  293PC     C3313066   2.414   5.482   1.892 -0.2364 -0.0903 -0.3492
  293PC     H3A13067   2.344   5.403   1.917 -1.2592  0.4183 -1.4834
  293PC     H3B13068   2.385   5.577   1.938  2.2489  0.7113 -0.2744
  293PC     H3C13069   2.434   5.500   1.786  0.1782 -1.1433 -0.4607
  293PC     C3413070   2.628   5.565   1.928  0.0705 -0.2570 -0.0670
  293PC     H4A13071   2.734   5.552   1.950  0.4056  0.8337 -0.9463
  293PC     H4B13072   2.621   5.600   1.825  1.1108  1.7127  0.4818
  293PC     H4C13073   2.594   5.643   1.997  0.3632 -2.2165  2.4239
  293PC     C3513074   2.583   5.331   1.853 -0.2008 -0.2041  0.4128
  293PC     H5A13075   2.520   5.248   1.886 -1.1755 -0.3657 -1.6749
  293PC     H5B13076   2.688   5.303   1.853 -0.5102 -1.4148  1.1316
  293PC     H5C13077   2.553   5.364   1.753 -2.6551  0.9236  1.4218
  293PC     O3313078   2.167   5.275   2.093 -0.3149 -0.1739 -0.3615
  293PC     O3413079   2.102   5.479   2.231  0.5823  0.3844  0.0316
  293PC     O2113080   2.176   5.377   2.700 -0.1446 -0.6413 -0.1629
  293PC     C2113081   2.264   5.359   2.808  0.2997 -0.1918  0.0984
  293PC     O2213082   2.356   5.284   2.803 -0.0927 -0.6741  0.2111
  294OL     C1213083   2.221   5.453   2.923 -0.0404 -0.0274 -0.2450
  294OL     H2R13084   2.179   5.397   3.007 -1.0427  1.4579  0.2942
  294OL     H2S13085   2.150   5.526   2.885 -0.2351 -0.5904 -0.9827
  294OL     C1313086   2.345   5.532   2.969 -0.2575  0.0700 -0.1504
  294OL     H3R13087   2.376   5.597   2.887 -0.2951  2.6557  1.7453
  294OL     H3S13088   2.429   5.466   2.992 -0.3686 -0.3069 -0.8327
  294OL     C1413089   2.324   5.621   3.090  0.0494 -0.1874  0.4671
  294OL     H4R13090   2.244   5.688   3.060 -0.5424 -1.7663 -1.7165
  294OL     H4S13091   2.411   5.683   3.113 -0.2415  0.4154 -0.0496
  294OL     C1513092   2.294   5.542   3.219 -0.8050  0.3050  0.4607
  294OL     H5R13093   2.355   5.452   3.215  0.5886  1.1542  1.4072
  294OL     H5S13094   2.187   5.519   3.214 -0.6756 -0.3330  0.6305
  294OL     C1613095   2.312   5.621   3.342 -0.0923  0.1347  0.0579
  294OL     H6R13096   2.236   5.699   3.339  0.4080  0.6646  0.7332
  294OL     H6S13097   2.404   5.680   3.344 -0.7929  1.2640  2.0800
  294OL     C1713098   2.300   5.532   3.464 -0.3150 -0.2310 -0.7108
  294OL     H7R13099   2.379   5.457   3.468 -0.4140 -0.3037  0.3461
  294OL     H7S13100   2.203   5.481   3.460 -0.7166  0.4589 -0.0289
  294OL     C1813101   2.309   5.617   3.591  0.1159 -0.7276  1.0196
  294OL     H8R13102   2.365   5.708   3.567 -0.1955 -1.2905 -2.2119
  294OL     H8S13103   2.357   5.560   3.671 -1.4356 -2.6826  0.6313
  294OL     C1913104   2.172   5.652   3.644 -0.7113  0.2928 -1.3264
  294OL     H9R13105   2.096   5.575   3.635  1.2554 -1.8649 -0.3652
  294OL    C11013106   2.148   5.766   3.718  0.5355 -0.0362 -0.4025
  294OL    H10R13107   2.049   5.776   3.762  0.3845  1.7304 -1.0715
  294OL    C11113108   2.234   5.881   3.741 -0.4265 -0.6300  0.2009
  294OL    H11R13109   2.171   5.969   3.724  1.0253  0.3198 -0.5375
  294OL    H11S13110   2.311   5.877   3.663 -0.0074 -1.7130  0.6547
  294OL    C11213111   2.306   5.883   3.877 -0.0351 -0.1133  0.1600
  294OL    H12R13112   2.378   5.965   3.879 -0.8312  0.6995 -1.9188
  294OL    H12S13113   2.360   5.788   3.874 -0.2612 -0.2427  0.1522
  294OL    C11313114   2.218   5.876   4.004 -0.3401 -0.0160 -0.5129
  294OL    H13R13115   2.168   5.779   4.003  1.3745 -0.9359 -2.0369
  294OL    H13S13116   2.143   5.955   3.994 -3.4852 -2.8945 -1.5491
  294OL    C11413117   2.310   5.879   4.127 -0.0013  0.6046  0.2864
  294OL    H14R13118   2.374   5.967   4.129  3.0629 -1.4772 -0.2262
  294OL    H14S13119   2.384   5.800   4.118  0.6893  1.1014  1.3340
  294OL    C11513120   2.240   5.868   4.264  0.8581  0.4502 -0.4686
  294OL    H15R13121   2.196   5.768   4.264 -2.3507  1.7432 -0.7346
  294OL    H15S13122   2.156   5.937   4.265  1.9725  1.9549 -2.4745
  294OL    C11613123   2.320   5.897   4.397  0.2022 -0.3498  0.1256
  294OL    H16R13124   2.242   5.889   4.473 -1.3444  1.5277 -1.1616
  294OL    H16S13125   2.362   5.998   4.397  1.2706 -0.7743 -1.0294
  294OL    C11713126   2.442   5.801   4.419  0.2977  0.3584  0.0773
  294OL    H17R13127   2.523   5.823   4.349 -0.2978 -0.3211 -0.8388
  294OL    H17S13128   2.403   5.700   4.408  0.1136  0.6399 -2.2994
  294OL    C11813129   2.505   5.820   4.558 -0.3121  0.0233  0.0272
  294OL    H18R13130   2.594   5.756   4.556 -0.6491 -0.4378 -1.1710
  294OL    H18S13131   2.438   5.785   4.637  0.5740 -1.6394  0.1075
  294OL    H18T13132   2.536   5.922   4.580 -0.2650  0.0398 -0.1170
  295PA    C11613133   4.249   2.388   3.870 -0.2140 -0.2960 -0.0102
  295PA    H16R13134   4.173   2.440   3.929 -0.1678  1.3608 -1.3072
  295PA    H16S13135   4.332   2.391   3.940  1.3148  1.3540 -1.7603
  295PA    H16T13136   4.211   2.286   3.868 -0.9694 -0.0146 -0.6906
  295PA    C11513137   4.279   2.459   3.736 -0.1847 -0.3765  0.2121
  295PA    H15R13138   4.268   2.564   3.760  1.6606 -0.1864  0.3535
  295PA    H15S13139   4.380   2.428   3.707 -0.1107  0.9507 -1.0672
  295PA    C11413140   4.176   2.431   3.624 -0.2004  0.1834 -0.1977
  295PA    H14R13141   4.163   2.325   3.604  0.3468 -0.0080  0.4266
  295PA    H14S13142   4.083   2.476   3.660  0.5817  0.6844  1.2844
  295PA    C11313143   4.235   2.496   3.497  0.7353 -0.0321 -0.3800
  295PA    H13R13144   4.263   2.598   3.523 -0.8582  0.1045  0.9677
  295PA    H13S13145   4.329   2.441   3.485  1.1209  0.1588  1.4206
  295PA    C11213146   4.150   2.498   3.370  0.1908 -0.0249 -0.0445
  295PA    H12R13147   4.054   2.541   3.400 -0.4066 -1.7520  0.6933
  295PA    H12S13148   4.200   2.560   3.295  0.7337 -0.0881  0.2641
  295PA    C11113149   4.117   2.362   3.316  0.3099  0.8384 -0.1318
  295PA    H11R13150   4.205   2.303   3.289 -1.5565 -0.5050 -3.9638
  295PA    H11S13151   4.066   2.315   3.400 -0.3696  0.8700 -0.5142
  295PA    C11013152   4.018   2.365   3.198  0.3021 -0.4534 -0.1092
  295PA    H10R13153   3.917   2.383   3.237 -0.1351 -0.3861 -1.2305
  295PA    H10S13154   4.045   2.456   3.144 -1.6011  0.2612  0.0800
  295PA     C1913155   4.035   2.242   3.105  0.3778 -0.6192 -0.2061
  295PA     H9R13156   4.136   2.242   3.062  1.3683 -0.5119  2.0233
  295PA     H9S13157   4.026   2.154   3.167  0.6784 -0.3389  0.2439
  295PA     C1813158   3.928   2.222   2.999 -0.6087 -0.1967 -0.3932
  295PA     H8R13159   3.937   2.306   2.929  0.1091 -0.3216 -0.4687
  295PA     H8S13160   3.953   2.134   2.938  0.5263  0.3456 -0.7480
  295PA     C1713161   3.793   2.211   3.071  0.2791  0.6305  0.3118
  295PA     H7R13162   3.802   2.154   3.163  1.4366 -2.5291 -1.5725
  295PA     H7S13163   3.767   2.312   3.100 -1.3370 -0.0767  1.4163
  295PA     C1613164   3.687   2.147   2.985  0.1481  0.2781  0.0466
  295PA     H6R13165   3.594   2.166   3.038  0.1352  1.2240 -0.3025
  295PA     H6S13166   3.669   2.201   2.892  0.1392 -1.5524 -1.0558
  295PA     C1513167   3.711   1.992   2.963  0.1934 -0.1471  0.2292
  295PA     H5R13168   3.814   1.984   2.928  0.2086 -0.8187  0.4221
  295PA     H5S13169   3.711   1.943   3.061 -0.6565 -1.9032 -0.6067
  295PA     C1413170   3.625   1.924   2.860  0.6902  0.6492 -0.1758
  295PA     H4R13171   3.622   1.816   2.878 -1.8153  0.6643 -0.2409
  295PA     H4S13172   3.523   1.952   2.886  1.2761  1.0831  1.8036
  295PA     C1313173   3.635   1.953   2.709 -0.1842  0.4054 -0.3560
  295PA     H3R13174   3.629   2.060   2.688 -3.5318  0.2030 -1.0502
  295PA     H3S13175   3.728   1.918   2.664 -1.6876 -2.5849 -1.4205
  295PA     C1213176   3.525   1.881   2.638  0.4873  0.2101 -0.4434
  295PA     H2R13177   3.542   1.776   2.662 -0.4386  0.7571  3.0931
  295PA     H2S13178   3.425   1.914   2.666  0.7227  1.9911 -1.5442
  296PC     C1113179   3.522   1.903   2.489  0.6664  0.2069  0.5041
  296PC     O1213180   3.521   2.012   2.434  0.0117  0.3643  0.7429
  296PC     O1113181   3.516   1.786   2.424  0.5047  0.3895 -0.2256
  296PC      C113182   3.519   1.788   2.277 -0.3205  0.2026  0.1799
  296PC      HR13183   3.465   1.707   2.229 -2.8568  1.9530 -0.1499
  296PC      HS13184   3.477   1.881   2.236 -0.1850  0.0744 -0.2488
  296PC      C213185   3.664   1.764   2.230 -0.2441 -0.2688  0.4789
  296PC      HX13186   3.719   1.855   2.254 -1.5323  0.3613  1.1377
  296PC      C313187   3.676   1.751   2.075  0.1390 -0.7201 -0.1515
  296PC      HA13188   3.629   1.659   2.040 -0.9684 -0.2683  0.1053
  296PC      HB13189   3.633   1.842   2.031  2.1215  0.9944  1.2556
  296PC     O3113190   3.819   1.743   2.050  0.3828  0.0153 -0.2501
  296PC     P3113191   3.887   1.810   1.924 -0.2069 -0.3680 -0.0158
  296PC     O3213192   3.860   1.964   1.952  0.0667 -0.3039 -0.6966
  296PC     C3113193   3.932   2.037   2.053 -0.1629 -0.2769  0.0453
  296PC     H1A13194   3.885   2.010   2.148 -2.5070 -2.0871 -1.4988
  296PC     H1B13195   4.037   2.008   2.054  0.2448  1.0988 -0.8466
  296PC     C3213196   3.919   2.185   2.027  0.5018 -0.5355 -0.6860
  296PC     H2A13197   3.818   2.223   2.035  0.5320 -0.6704  0.3819
  296PC     H2B13198   3.982   2.239   2.098  2.4773 -0.4507 -2.3803
  296PC     N3113199   3.967   2.244   1.898 -0.8355 -0.2699  0.1471
  296PC     C3313200   3.933   2.384   1.894  0.5997 -1.0541 -0.1074
  296PC     H3A13201   3.920   2.422   1.996  0.3849 -1.0018 -0.1532
  296PC     H3B13202   4.003   2.451   1.845  1.3014  0.2969  2.5416
  296PC     H3C13203   3.835   2.390   1.846  0.3208 -2.7879  0.1684
  296PC     C3413204   4.117   2.239   1.897  0.0519  0.0487 -0.4523
  296PC     H4A13205   4.144   2.143   1.940  0.5348  0.4137  0.0734
  296PC     H4B13206   4.156   2.259   1.797  1.1253  0.3717  0.0181
  296PC     H4C13207   4.152   2.317   1.964  0.5713 -0.1214 -0.5211
  296PC     C3513208   3.906   2.185   1.767  0.3334  0.1789 -0.3039
  296PC     H5A13209   3.942   2.083   1.755 -0.5728 -0.3377  1.0789
  296PC     H5B13210   3.933   2.252   1.685 -2.3733  2.4130  0.4645
  296PC     H5C13211   3.798   2.181   1.778  0.4234  0.4565  0.8103
  296PC     O3313212   4.032   1.778   1.927  0.6607  0.3973  0.4943
  296PC     O3413213   3.805   1.773   1.810 -1.0402  0.0019 -0.0249
  296PC     O2113214   3.729   1.646   2.291  0.3551 -0.8854  0.1505
  296PC     C2113215   3.792   1.663   2.406  0.3399  0.0091 -0.4590
  296PC     O2213216   3.796   1.771   2.463 -0.4499  0.2602  0.2673
  297OL     C1213217   3.845   1.527   2.453  0.8457  0.0905 -0.0894
  297OL     H2R13218   3.937   1.501   2.399  0.5418  0.1599 -0.6462
  297OL     H2S13219   3.764   1.458   2.430  1.0039 -0.5798  1.2342
  297OL     C1313220   3.886   1.520   2.600 -0.5241  0.1657 -0.0539
  297OL     H3R13221   3.808   1.572   2.656  0.4812  0.1418  1.4363
  297OL     H3S13222   3.978   1.578   2.614 -0.7796  0.3634  0.9127
  297OL     C1413223   3.925   1.376   2.646  0.0604  0.3858  0.3905
  297OL     H4R13224   4.002   1.342   2.575 -0.5668  1.4281 -0.8399
  297OL     H4S13225   3.837   1.316   2.623  0.9160 -0.3942 -1.0502
  297OL     C1513226   3.961   1.360   2.800 -0.2871 -0.4998  0.5577
  297OL     H5R13227   4.056   1.406   2.825  0.5248 -1.1567 -1.1783
  297OL     H5S13228   3.971   1.253   2.821 -0.8698 -1.2107 -2.3863
  297OL     C1613229   3.848   1.417   2.888 -0.2240  0.0789 -0.2342
  297OL     H6R13230   3.756   1.379   2.843 -0.6317  1.2330 -0.4115
  297OL     H6S13231   3.851   1.525   2.877 -0.4615  0.0153 -0.9950
  297OL     C1713232   3.850   1.374   3.033 -0.5549  0.7915 -0.2162
  297OL     H7R13233   3.950   1.392   3.073 -0.2293 -0.1658 -0.5719
  297OL     H7S13234   3.823   1.268   3.039  0.2008  0.6913  2.1003
  297OL     C1813235   3.733   1.442   3.115 -0.3904  0.0094  0.8088
  297OL     H8R13236   3.643   1.389   3.081  1.0888 -1.5909 -0.8785
  297OL     H8S13237   3.729   1.548   3.091  0.9204 -0.0769  0.0936
  297OL     C1913238   3.759   1.414   3.260 -0.4369 -0.7986  0.3362
  297OL     H9R13239   3.800   1.314   3.270  0.3830 -0.4726  0.3325
  297OL    C11013240   3.733   1.494   3.363  0.2753  0.1564 -0.0913
  297OL    H10R13241   3.751   1.457   3.464 -0.8330 -0.5277 -0.1216
  297OL    C11113242   3.678   1.644   3.360 -0.0108  0.0297 -0.0732
  297OL    H11R13243   3.654   1.685   3.262  1.7511 -0.4002 -0.7285
  297OL    H11S13244   3.758   1.701   3.408 -0.0955 -1.4369  1.9137
  297OL    C11213245   3.562   1.651   3.447  0.3509 -0.3728 -0.2598
  297OL    H12R13246   3.589   1.642   3.552 -3.3439 -0.0780  0.8431
  297OL    H12S13247   3.497   1.567   3.421 -0.1772  0.5395 -2.0596
  297OL    C11313248   3.472   1.786   3.446 -0.5479 -0.6444 -0.3221
  297OL    H13R13249   3.464   1.819   3.342  0.2842 -0.3694 -0.3070
  297OL    H13S13250   3.534   1.856   3.502 -0.0731 -1.3458  0.0396
  297OL    C11413251   3.329   1.760   3.501  0.2200 -0.2485 -0.1357
  297OL    H14R13252   3.337   1.707   3.596 -0.5336  1.1366  0.7389
  297OL    H14S13253   3.280   1.682   3.442 -0.2518  0.8846 -1.2949
  297OL    C11513254   3.235   1.877   3.528 -0.9095  0.4514 -0.5765
  297OL    H15R13255   3.208   1.932   3.437  0.9594  0.5165 -1.1423
  297OL    H15S13256   3.282   1.949   3.596  0.7436  1.0234 -2.2060
  297OL    C11613257   3.097   1.832   3.582  0.0129 -0.6050  0.0168
  297OL    H16R13258   3.105   1.767   3.670  1.1185  1.8461  1.8522
  297OL    H16S13259   3.044   1.778   3.503 -1.6110  0.8297  0.0739
  297OL    C11713260   3.006   1.949   3.627 -0.9485 -0.0710 -0.1441
  297OL    H17R13261   3.003   2.039   3.566  0.1758 -0.4133 -0.7271
  297OL    H17S13262   3.056   1.984   3.717 -1.4252 -0.6970  0.3768
  297OL    C11813263   2.861   1.920   3.668  0.3924 -0.8915  0.6611
  297OL    H18R13264   2.815   2.007   3.713  1.5056 -1.1488  2.3881
  297OL    H18S13265   2.873   1.840   3.742  0.3218 -1.3322  0.1962
  297OL    H18T13266   2.805   1.884   3.582  0.8853  1.1102 -0.5663
  298PA    C11613267   0.472   0.714   3.594 -0.5811  0.4117  0.0702
  298PA    H16R13268   0.484   0.611   3.629  1.4797  0.1172 -1.3968
  298PA    H16S13269   0.387   0.765   3.642 -0.2161  0.6246  0.5003
  298PA    H16T13270   0.564   0.762   3.628  0.5243 -1.7762  0.3665
  298PA    C11513271   0.455   0.726   3.443  0.2988  0.1104 -0.1238
  298PA    H15R13272   0.360   0.675   3.424  1.0390 -1.1526 -0.5736
  298PA    H15S13273   0.441   0.828   3.407 -0.8692 -0.2793 -0.8203
  298PA    C11413274   0.562   0.662   3.364  0.3516 -0.1788 -0.4951
  298PA    H14R13275   0.654   0.721   3.358 -0.9898  1.8587 -3.5191
  298PA    H14S13276   0.579   0.561   3.401 -2.0799 -0.2525  0.6028
  298PA    C11313277   0.514   0.647   3.219 -0.3112  0.1347  0.0123
  298PA    H13R13278   0.428   0.580   3.212 -0.1353 -0.2564  1.2781
  298PA    H13S13279   0.485   0.748   3.189 -2.4555 -0.6868 -0.9207
  298PA    C11213280   0.613   0.584   3.127 -0.5998  0.0594 -0.1257
  298PA    H12R13281   0.713   0.627   3.130  0.6155 -2.4101 -1.8046
  298PA    H12S13282   0.622   0.476   3.144  1.4469 -0.1504 -2.0029
  298PA    C11113283   0.566   0.605   2.983  0.5342 -0.1326  0.6537
  298PA    H11R13284   0.480   0.541   2.965  0.6760 -0.3610  0.7683
  298PA    H11S13285   0.534   0.706   2.958 -0.6563 -0.8486 -0.8686
  298PA    C11013286   0.693   0.580   2.896 -0.1324 -0.1071 -0.5510
  298PA    H10R13287   0.772   0.652   2.920  0.6338 -1.0722 -0.1459
  298PA    H10S13288   0.743   0.484   2.906  0.8325  0.5559  1.5635
  298PA     C1913289   0.655   0.586   2.747 -0.4186 -0.9680  0.0800
  298PA     H9R13290   0.620   0.489   2.709  0.5399 -1.2972  0.0088
  298PA     H9S13291   0.569   0.652   2.734  0.1211 -0.2437  0.1632
  298PA     C1813292   0.777   0.630   2.668 -0.9143  0.5072  0.2417
  298PA     H8R13293   0.808   0.729   2.701 -2.1340  0.6190  1.1083
  298PA     H8S13294   0.859   0.562   2.689 -0.4383  1.2271  0.7496
  298PA     C1713295   0.756   0.644   2.519 -0.3279  0.4553 -0.2986
  298PA     H7R13296   0.667   0.708   2.510 -0.7112  0.3251  1.9548
  298PA     H7S13297   0.844   0.691   2.475  1.1630 -0.6303  1.3915
  298PA     C1613298   0.734   0.504   2.459 -0.0870  0.8079  0.0910
  298PA     H6R13299   0.803   0.433   2.505 -0.7995 -0.3151 -0.5346
  298PA     H6S13300   0.637   0.462   2.487  0.7950  0.2021  2.4377
  298PA     C1513301   0.748   0.500   2.306 -0.0955  0.7820 -0.5565
  298PA     H5R13302   0.707   0.406   2.268  0.3262  0.8163 -1.1187
  298PA     H5S13303   0.692   0.579   2.255  0.3985  1.2666 -0.3647
  298PA     C1413304   0.897   0.495   2.258 -0.2125  0.3465  0.6505
  298PA     H4R13305   0.938   0.595   2.270  0.6239  0.0949  0.0624
  298PA     H4S13306   0.954   0.429   2.324 -0.7692 -1.3152 -0.4362
  298PA     C1313307   0.905   0.470   2.102  0.2449  0.3372  0.5439
  298PA     H3R13308   0.830   0.400   2.065  1.0313 -0.5591  0.5913
  298PA     H3S13309   0.885   0.558   2.041 -0.1942 -0.0341  0.1428
  298PA     C1213310   1.044   0.420   2.046 -0.6423  0.4232 -0.8373
  298PA     H2R13311   1.061   0.428   1.938 -1.1971  3.0782 -0.8093
  298PA     H2S13312   1.124   0.488   2.076  1.7383 -1.5501 -2.3045
  299PC     C1113313   1.086   0.275   2.089  0.5561 -0.0205  0.2624
  299PC     O1213314   1.084   0.235   2.205 -0.6765 -0.6788  0.1556
  299PC     O1113315   1.120   0.201   1.983  0.3905 -0.0602 -0.2519
  299PC      C113316   1.106   0.058   1.991 -0.2669 -0.5705 -0.6377
  299PC      HR13317   1.176   0.012   1.921  1.8499 -0.8863  1.5690
  299PC      HS13318   1.144   0.027   2.089  0.4024  0.6124 -0.4952
  299PC      C213319   0.958   0.014   1.968 -0.3904 -0.4380 -0.7725
  299PC      HX13320   0.957  -0.095   1.961  1.5528 -0.4689 -1.0809
  299PC      C313321   0.900   0.078   1.836  0.3831  0.2772  0.3743
  299PC      HA13322   0.792   0.071   1.843  0.4579  0.2108  1.7971
  299PC      HB13323   0.917   0.186   1.835  3.4998 -0.0664 -2.6803
  299PC     O3113324   0.950   0.003   1.715 -0.2205 -0.5389  0.3217
  299PC     P3113325   0.871   0.013   1.579 -0.0678 -0.0264 -0.2162
  299PC     O3213326   0.968   0.111   1.495  0.1941 -0.5760  0.4552
  299PC     C3113327   0.959   0.255   1.509 -0.2539  0.0225 -0.2017
  299PC     H1A13328   0.865   0.286   1.462 -0.9728  1.7264  2.1555
  299PC     H1B13329   0.944   0.290   1.611  1.1937  2.6093 -0.7969
  299PC     C3213330   1.085   0.317   1.443  0.0204  0.5964  0.3642
  299PC     H2A13331   1.071   0.302   1.336 -0.2943  0.9014  0.3583
  299PC     H2B13332   1.078   0.423   1.467 -0.9671  1.1888 -2.1638
  299PC     N3113333   1.220   0.288   1.490  0.0726  0.4475 -0.3971
  299PC     C3313334   1.260   0.174   1.409 -0.3683 -0.1154 -0.0650
  299PC     H3A13335   1.359   0.137   1.438  0.8329  0.9514 -2.5237
  299PC     H3B13336   1.185   0.096   1.425  0.7560 -1.0611  0.7678
  299PC     H3C13337   1.265   0.203   1.305  1.8371 -0.3925 -0.0935
  299PC     C3413338   1.314   0.403   1.463  0.1902  0.4246  0.5511
  299PC     H4A13339   1.343   0.414   1.359  0.4316  0.9571  0.6695
  299PC     H4B13340   1.275   0.498   1.499  1.8848  1.0039  0.9674
  299PC     H4C13341   1.400   0.380   1.527  1.5425 -0.2747 -1.4246
  299PC     C3513342   1.224   0.247   1.635 -0.0900 -0.2350  0.2084
  299PC     H5A13343   1.181   0.324   1.699  1.0085  0.6871 -0.1379
  299PC     H5B13344   1.330   0.229   1.649 -0.3952 -0.6517  2.2698
  299PC     H5C13345   1.179   0.149   1.652 -2.6689  0.8388  0.1940
  299PC     O3313346   0.862  -0.116   1.507  0.0536  0.1701  0.6611
  299PC     O3413347   0.744   0.088   1.598 -0.4066 -0.4506  0.0580
  299PC     O2113348   0.874   0.057   2.085 -0.5578  0.4325 -0.2074
  299PC     C2113349   0.895  -0.007   2.206  0.4812 -0.0631 -0.0950
  299PC     O2213350   0.949  -0.112   2.222  0.0076 -0.1592  0.1369
  300OL     C1213351   0.833   0.069   2.314 -0.0616 -0.1289  0.2808
  300OL     H2R13352   0.725   0.054   2.313 -0.0211 -0.4221  0.2351
  300OL     H2S13353   0.849   0.174   2.288  0.0163  0.1510  1.3967
  300OL     C1313354   0.882   0.049   2.456  0.2678 -0.2089  0.2042
  300OL     H3R13355   0.982   0.092   2.458  1.3824 -2.6306  0.9753
  300OL     H3S13356   0.895  -0.059   2.468  1.2494 -0.1783 -0.4320
  300OL     C1413357   0.792   0.102   2.568  0.0749 -0.0932 -0.7040
  300OL     H4R13358   0.700   0.045   2.578  0.3525 -0.2771  1.0658
  300OL     H4S13359   0.758   0.203   2.545  0.8565 -0.3402 -3.3616
  300OL     C1513360   0.868   0.111   2.703  1.1901 -0.3059 -1.3425
  300OL     H5R13361   0.957   0.173   2.686  1.0056  0.3821  0.0850
  300OL     H5S13362   0.893   0.010   2.734 -1.0966 -0.6545 -0.4921
  300OL     C1613363   0.785   0.174   2.819 -0.1108  0.0694  0.0849
  300OL     H6R13364   0.692   0.118   2.825 -0.6583  0.8045 -1.2316
  300OL     H6S13365   0.753   0.271   2.782  0.1009 -0.0957 -0.5552
  300OL     C1713366   0.871   0.204   2.945  0.0253  0.0544 -0.9786
  300OL     H7R13367   0.810   0.248   3.025  0.0349 -3.5708  1.2271
  300OL     H7S13368   0.937   0.289   2.925  0.1071  0.4649  0.8024
  300OL     C1813369   0.966   0.102   3.012 -0.5381  0.2859 -0.6548
  300OL     H8R13370   1.042   0.077   2.938  1.0128 -0.6530  1.1697
  300OL     H8S13371   0.905   0.014   3.032 -0.4482  0.3975  0.1366
  300OL     C1913372   1.029   0.150   3.143 -0.0476  0.0771 -0.1752
  300OL     H9R13373   1.115   0.215   3.124  1.4359 -2.0397 -1.1123
  300OL    C11013374   1.009   0.106   3.269  0.1492  0.4646  0.5045
  300OL    H10R13375   1.073   0.145   3.348  1.8146 -0.2819 -0.4320
  300OL    C11113376   0.900   0.010   3.316  0.3165  0.6365  0.2366
  300OL    H11R13377   0.936  -0.092   3.330 -0.0739  0.3263 -0.9612
  300OL    H11S13378   0.818   0.002   3.245  0.4750 -2.0550  0.2856
  300OL    C11213379   0.842   0.052   3.451  0.9644 -0.7749  0.3508
  300OL    H12R13380   0.917   0.041   3.529 -0.3998  0.8339  1.9879
  300OL    H12S13381   0.765  -0.022   3.474  1.6224 -1.1318  1.4663
  300OL    C11313382   0.776   0.195   3.464 -0.2041 -0.7053 -0.6435
  300OL    H13R13383   0.691   0.208   3.397  0.0644  1.9903 -0.5559
  300OL    H13S13384   0.855   0.266   3.436  1.0258 -1.1093  1.6014
  300OL    C11413385   0.712   0.232   3.603 -0.9340  0.4300 -0.4432
  300OL    H14R13386   0.648   0.148   3.627 -1.5957  0.7086 -1.1864
  300OL    H14S13387   0.649   0.321   3.595 -1.4747 -0.0912 -2.5692
  300OL    C11513388   0.817   0.266   3.714 -0.3508  0.4079 -0.4107
  300OL    H15R13389   0.872   0.172   3.723 -0.6132 -0.0247 -2.6995
  300OL    H15S13390   0.771   0.301   3.807 -1.1111  0.5406 -0.8312
  300OL    C11613391   0.918   0.372   3.671 -0.7694  0.2806 -0.2731
  300OL    H16R13392   0.982   0.336   3.589 -0.1749 -0.6491  0.5713
  300OL    H16S13393   0.983   0.391   3.757  0.4564 -1.1860 -0.8111
  300OL    C11713394   0.858   0.501   3.624  0.3104 -0.0227 -0.1893
  300OL    H17R13395   0.803   0.483   3.531 -0.6535  1.8543 -0.0403
  300OL    H17S13396   0.939   0.567   3.590  0.3196  0.4682  0.7625
  300OL    C11813397   0.787   0.571   3.741 -0.2592  0.5131 -0.4351
  300OL    H18R13398   0.702   0.521   3.787  1.2448  0.0235  2.0150
  300OL    H18S13399   0.759   0.673   3.717 -1.7967  0.4850  1.1462
  300OL    H18T13400   0.868   0.586   3.813  0.4072  0.8575 -1.2313
  301PA    C11613401   3.022   0.635   3.607 -0.3112  0.1456 -0.8384
  301PA    H16R13402   2.982   0.634   3.709  1.1710  0.8108 -0.2220
  301PA    H16S13403   2.942   0.676   3.546 -0.9365 -0.3496 -0.3767
  301PA    H16T13404   3.104   0.706   3.616  0.0644 -0.2696 -0.9281
  301PA    C11513405   3.059   0.491   3.581 -0.4083 -0.7908  0.5439
  301PA    H15R13406   3.070   0.437   3.676  1.4750 -2.7517 -0.7136
  301PA    H15S13407   2.977   0.440   3.530 -1.6897  0.3494  1.4030
  301PA    C11413408   3.183   0.474   3.488 -0.0446 -0.5500  0.6409
  301PA    H14R13409   3.164   0.523   3.392  1.1488  1.8438  1.5342
  301PA    H14S13410   3.271   0.508   3.544 -0.7126 -0.7961  1.8831
  301PA    C11313411   3.208   0.328   3.461  0.1363  0.1268 -0.0940
  301PA    H13R13412   3.242   0.297   3.560  1.0470 -3.5873 -1.4295
  301PA    H13S13413   3.117   0.273   3.438  1.4441 -1.5797 -1.4978
  301PA    C11213414   3.319   0.297   3.364 -0.1399 -0.7100 -0.3617
  301PA    H12R13415   3.303   0.353   3.272  0.4445 -2.6313 -1.6722
  301PA    H12S13416   3.406   0.330   3.422 -0.4177  1.2072 -0.9477
  301PA    C11113417   3.331   0.153   3.319  0.8080 -0.0169  0.0779
  301PA    H11R13418   3.340   0.083   3.402  0.9308  0.0600  0.1291
  301PA    H11S13419   3.245   0.120   3.259  1.0642 -0.4747 -0.0472
  301PA    C11013420   3.449   0.139   3.222 -0.6357  0.6459  0.5984
  301PA    H10R13421   3.440   0.199   3.131  0.3373 -1.3003 -0.8702
  301PA    H10S13422   3.538   0.178   3.273 -0.3105  0.9032 -0.1471
  301PA     C1913423   3.475  -0.013   3.194 -0.8323  0.2227  0.6147
  301PA     H9R13424   3.482  -0.057   3.293  1.2468  1.2872  0.9788
  301PA     H9S13425   3.389  -0.053   3.139 -1.4322  2.5138 -0.2306
  301PA     C1813426   3.602  -0.038   3.112  0.2515  0.6290  0.3942
  301PA     H8R13427   3.686  -0.002   3.172 -0.5462  2.1587  0.6373
  301PA     H8S13428   3.615  -0.145   3.090  0.8858  0.7543  0.1301
  301PA     C1713429   3.614   0.045   2.986 -0.4422  0.1525  0.2422
  301PA     H7R13430   3.523   0.039   2.926 -0.0658 -1.6951 -0.1765
  301PA     H7S13431   3.631   0.148   3.019  0.3809  0.1618 -0.1872
  301PA     C1613432   3.734  -0.002   2.897  0.1113 -0.1894  0.1612
  301PA     H6R13433   3.829  -0.001   2.952  0.5874  1.7757 -0.6209
  301PA     H6S13434   3.704  -0.097   2.853  0.4292 -0.3365  0.2603
  301PA     C1513435   3.766   0.111   2.803  0.7673  0.0160  0.5087
  301PA     H5R13436   3.689   0.146   2.733 -0.8530 -1.1507  1.6364
  301PA     H5S13437   3.786   0.195   2.871 -0.2546 -0.6208  1.6441
  301PA     C1413438   3.887   0.083   2.717 -0.0601 -0.0757  0.4730
  301PA     H4R13439   3.974   0.070   2.782 -0.5863 -0.4031  1.1322
  301PA     H4S13440   3.865  -0.010   2.663 -3.6814  0.3914  0.9110
  301PA     C1313441   3.922   0.191   2.613 -0.2189 -0.2011  0.5636
  301PA     H3R13442   3.836   0.207   2.547 -0.1867 -1.8663  0.0607
  301PA     H3S13443   3.940   0.284   2.667  1.7229 -0.0666 -0.2434
  301PA     C1213444   4.043   0.172   2.516 -0.2686 -0.1908 -0.4352
  301PA     H2R13445   4.052   0.273   2.475  0.6883  0.3749  1.0933
  301PA     H2S13446   4.129   0.140   2.574  0.4961 -1.1183 -2.0067
  302PC     C1113447   4.015   0.084   2.408 -0.0174  0.3094 -0.9016
  302PC     O1213448   3.902   0.060   2.368  0.3691 -0.2153  0.0364
  302PC     O1113449   4.131   0.029   2.365 -0.2351  0.0514 -0.2233
  302PC      C113450   4.129  -0.053   2.243 -0.0741 -0.0951  0.1526
  302PC      HR13451   4.220  -0.114   2.235  1.2580  1.6505  1.1535
  302PC      HS13452   4.051  -0.128   2.249  0.2491 -0.4350  0.1690
  302PC      C213453   4.115   0.042   2.117 -0.1442 -0.1713  0.3543
  302PC      HX13454   4.025   0.103   2.124  0.2421  0.3382  1.0044
  302PC      C313455   4.121  -0.043   1.985  0.2703 -1.0974 -0.8825
  302PC      HA13456   4.126   0.021   1.896  0.6096 -0.0041 -0.1029
  302PC      HB13457   4.215  -0.098   1.993  2.8451  2.6962 -2.0601
  302PC     O3113458   4.003  -0.133   1.983  0.2678 -0.1761  0.4413
  302PC     P3113459   3.869  -0.094   1.907 -0.0647 -0.1336  0.0163
  302PC     O3213460   3.791   0.016   1.990  0.2131  0.7113  0.1233
  302PC     C3113461   3.718  -0.015   2.113 -0.1443  0.2606  0.5129
  302PC     H1A13462   3.786  -0.073   2.175 -0.7901 -1.0612  0.0420
  302PC     H1B13463   3.684   0.079   2.157  2.9924  1.5287  0.4208
  302PC     C3213464   3.587  -0.094   2.079 -0.3624  0.3008  0.3031
  302PC     H2A13465   3.528  -0.029   2.015  0.0369  1.4218  1.0478
  302PC     H2B13466   3.609  -0.187   2.027  0.9516 -0.0691  1.4501
  302PC     N3113467   3.513  -0.146   2.188 -0.1100  0.0247 -0.2825
  302PC     C3313468   3.389  -0.205   2.143  0.1348  0.4304  0.2178
  302PC     H3A13469   3.315  -0.203   2.223 -2.5296  0.7617 -2.0636
  302PC     H3B13470   3.359  -0.152   2.052  0.0555 -0.2758 -0.1793
  302PC     H3C13471   3.410  -0.306   2.106  1.0576  1.1551 -1.3537
  302PC     C3413472   3.592  -0.255   2.264  0.0874  0.2768  0.1839
  302PC     H4A13473   3.513  -0.302   2.322  0.2033 -1.3294 -0.9150
  302PC     H4B13474   3.640  -0.317   2.188 -1.1715 -1.8449  1.0483
  302PC     H4C13475   3.670  -0.205   2.323  1.0368 -1.5752  0.5785
  302PC     C3513476   3.467  -0.038   2.278  0.5404 -0.3641 -0.0082
  302PC     H5A13477   3.389   0.018   2.224  0.5241 -0.8862 -0.5399
  302PC     H5B13478   3.554   0.024   2.298  0.7635 -0.3504 -0.9687
  302PC     H5C13479   3.426  -0.079   2.370 -2.1971  0.8147 -0.5928
  302PC     O3313480   3.912  -0.042   1.775 -0.0396  0.3639 -0.3796
  302PC     O3413481   3.785  -0.218   1.907  0.3646 -0.2781  0.3489
  302PC     O2113482   4.228   0.133   2.116  0.0203 -0.2701  0.0055
  302PC     C2113483   4.221   0.260   2.160  0.4262  0.3914 -0.3433
  302PC     O2213484   4.116   0.308   2.193 -0.1683  0.3211  0.2599
  303OL     C1213485   4.355   0.323   2.163  0.3309 -0.5809  0.1643
  303OL     H2R13486   4.354   0.427   2.128  4.0015 -1.1690 -2.2398
  303OL     H2S13487   4.421   0.271   2.093  0.1218 -0.4091 -0.1619
  303OL     C1313488   4.418   0.319   2.299  0.1360 -0.4310 -0.1804
  303OL     H3R13489   4.518   0.362   2.293  1.1501 -2.1985  2.4424
  303OL     H3S13490   4.422   0.214   2.328 -1.3222 -0.3968  0.2191
  303OL     C1413491   4.355   0.397   2.417  0.2079 -0.0546 -0.0390
  303OL     H4R13492   4.256   0.355   2.437 -0.6649  1.8599 -0.1048
  303OL     H4S13493   4.329   0.500   2.391 -0.5698  0.1623  1.5151
  303OL     C1513494   4.447   0.401   2.538 -0.0368  0.6458 -0.1946
  303OL     H5R13495   4.543   0.449   2.521  0.8387 -1.4764 -1.7072
  303OL     H5S13496   4.474   0.300   2.570 -0.9162  1.1619  2.3521
  303OL     C1613497   4.371   0.473   2.650 -0.0023  0.8660  0.2990
  303OL     H6R13498   4.294   0.539   2.609 -1.9829 -1.3835  0.1645
  303OL     H6S13499   4.434   0.534   2.715 -0.6792  0.4938  1.3389
  303OL     C1713500   4.290   0.383   2.747 -0.6409  0.2483  0.3360
  303OL     H7R13501   4.347   0.342   2.830 -0.8540  0.2774  0.4986
  303OL     H7S13502   4.240   0.305   2.690 -1.2090  1.6387 -1.1595
  303OL     C1813503   4.168   0.463   2.800 -0.3248 -0.0330 -0.0076
  303OL     H8R13504   4.105   0.502   2.720  0.1205  1.0228  0.1354
  303OL     H8S13505   4.209   0.546   2.858  1.2854 -0.6730 -0.1664
  303OL     C1913506   4.072   0.376   2.879 -0.4779  0.0188 -0.7439
  303OL     H9R13507   4.003   0.315   2.822 -1.3646 -0.4330  0.7691
  303OL    C11013508   4.058   0.383   3.012 -0.6056  0.3555  0.0666
  303OL    H10R13509   3.986   0.319   3.063 -0.7029 -0.0005 -0.4989
  303OL    C11113510   4.137   0.469   3.108 -0.9049  0.1649 -0.0685
  303OL    H11R13511   4.093   0.569   3.112  0.0197  0.6292 -1.0717
  303OL    H11S13512   4.243   0.475   3.083 -0.4091 -1.6002  1.4344
  303OL    C11213513   4.134   0.413   3.253  0.0505  0.5182 -0.6487
  303OL    H12R13514   4.150   0.306   3.242 -0.0237  0.3656  0.5883
  303OL    H12S13515   4.033   0.424   3.292  0.6469  1.6042  0.6656
  303OL    C11313516   4.249   0.467   3.341  0.2811  0.4269  0.0075
  303OL    H13R13517   4.238   0.444   3.448 -0.3213  1.0742  0.0981
  303OL    H13S13518   4.247   0.576   3.343 -1.4991  0.4948 -2.1356
  303OL    C11413519   4.389   0.421   3.309  0.6475  0.2970 -0.1070
  303OL    H14R13520   4.454   0.459   3.388 -0.1236  0.0670  0.6607
  303OL    H14S13521   4.421   0.470   3.218 -0.0543 -0.0585 -0.5569
  303OL    C11513522   4.409   0.266   3.302 -0.0928  0.5804  0.0603
  303OL    H15R13523   4.511   0.250   3.267 -0.3637 -1.3105  0.0348
  303OL    H15S13524   4.339   0.233   3.225  0.3998 -1.6557  0.5151
  303OL    C11613525   4.369   0.190   3.432  0.5507  0.0280  0.1506
  303OL    H16R13526   4.261   0.197   3.442  0.5449  2.6819 -0.9732
  303OL    H16S13527   4.414   0.232   3.522 -1.1255  0.0892  1.0100
  303OL    C11713528   4.411   0.043   3.432  0.0213 -0.0746 -0.2841
  303OL    H17R13529   4.517   0.022   3.414 -0.2400 -0.3856 -1.5935
  303OL    H17S13530   4.354  -0.009   3.354  1.0097  1.7464 -2.3316
  303OL    C11813531   4.370  -0.019   3.567  0.3909  0.8301 -0.0964
  303OL    H18R13532   4.260  -0.019   3.566  0.3567  2.3631  0.6741
  303OL    H18S13533   4.399   0.043   3.652  0.5726 -0.2966  0.6939
  303OL    H18T13534   4.423  -0.114   3.566  0.8076  1.0517  0.4110
  304PA    C11613535   3.438   7.634   4.187 -0.6454  0.2562  0.8550
  304PA    H16R13536   3.338   7.600   4.157 -1.0042  1.8749  0.1225
  304PA    H16S13537   3.437   7.712   4.263  3.7855  0.4331  0.9658
  304PA    H16T13538   3.488   7.546   4.227 -2.0231 -0.3738  1.2785
  304PA    C11513539   3.510   7.685   4.062 -0.5892 -0.4331 -0.2277
  304PA    H15R13540   3.469   7.777   4.017 -3.7631 -2.1864 -1.2799
  304PA    H15S13541   3.607   7.714   4.103 -0.8215  0.2172 -0.1207
  304PA    C11413542   3.529   7.580   3.955 -0.5788  0.0151 -0.3285
  304PA    H14R13543   3.568   7.483   3.989  0.0148 -0.7253 -2.8760
  304PA    H14S13544   3.430   7.562   3.913 -0.9434  0.5709  0.2872
  304PA    C11313545   3.617   7.643   3.846  0.5215 -0.8463  0.6790
  304PA    H13R13546   3.564   7.728   3.802  0.2454 -0.8361  1.0265
  304PA    H13S13547   3.711   7.677   3.888  1.2338 -0.5675 -1.0617
  304PA    C11213548   3.652   7.540   3.732  0.3307 -0.0538 -1.0372
  304PA    H12R13549   3.712   7.595   3.659  0.4426  1.9888  0.4990
  304PA    H12S13550   3.725   7.481   3.788 -0.3463  0.8216  0.8800
  304PA    C11113551   3.529   7.468   3.665 -0.2023 -0.5205  0.3723
  304PA    H11R13552   3.482   7.407   3.742  0.3791 -1.1117  0.2752
  304PA    H11S13553   3.459   7.547   3.640  0.1164 -0.2128  0.4386
  304PA    C11013554   3.562   7.399   3.536  0.3669 -0.4949  1.1221
  304PA    H10R13555   3.595   7.473   3.462 -2.0161  0.9352  1.3788
  304PA    H10S13556   3.641   7.325   3.550  1.0175 -0.4164 -1.5387
  304PA     C1913557   3.444   7.324   3.474 -0.0170  0.2373 -0.0825
  304PA     H9R13558   3.392   7.254   3.540 -1.7434  0.0617 -1.5419
  304PA     H9S13559   3.359   7.391   3.456 -2.7529 -1.1986  5.3816
  304PA     C1813560   3.477   7.237   3.344 -0.1572 -0.2045 -0.2057
  304PA     H8R13561   3.539   7.147   3.354 -2.2473 -1.8081 -0.9146
  304PA     H8S13562   3.385   7.195   3.303 -0.0828 -1.0443  0.4529
  304PA     C1713563   3.525   7.329   3.229 -1.0001 -0.6674  0.6816
  304PA     H7R13564   3.456   7.413   3.216  1.1810  0.8041 -3.0569
  304PA     H7S13565   3.622   7.376   3.248 -1.5315  0.7467  0.0083
  304PA     C1613566   3.542   7.244   3.098  0.9510  0.3948  0.3255
  304PA     H6R13567   3.605   7.157   3.113 -1.7518 -2.1756 -2.0620
  304PA     H6S13568   3.443   7.202   3.082  0.6520  0.9482  0.6773
  304PA     C1513569   3.593   7.339   2.988 -0.0443 -0.1652  0.8867
  304PA     H5R13570   3.536   7.432   2.995  1.8603  0.9903  1.6888
  304PA     H5S13571   3.694   7.372   3.013  0.2864  0.1671 -0.7772
  304PA     C1413572   3.584   7.268   2.853  0.6401 -0.1284 -0.5560
  304PA     H4R13573   3.623   7.168   2.874 -1.9127 -1.0772  0.0987
  304PA     H4S13574   3.479   7.257   2.824  0.2164 -1.3392  1.2772
  304PA     C1313575   3.653   7.333   2.742  0.1157 -1.1304 -0.0883
  304PA     H3R13576   3.659   7.442   2.744  1.9759 -1.2083  1.1678
  304PA     H3S13577   3.759   7.308   2.747  0.5879  0.8337  0.4549
  304PA     C1213578   3.591   7.305   2.607 -0.8347 -0.4014 -0.6967
  304PA     H2R13579   3.570   7.199   2.591 -0.6073 -0.6721  0.6708
  304PA     H2S13580   3.489   7.346   2.605 -1.1945 -1.2783 -0.8972
  305PC     C1113581   3.679   7.358   2.502 -0.2748  0.5772 -0.7076
  305PC     O1213582   3.662   7.463   2.440  0.1279 -0.5675  0.1264
  305PC     O1113583   3.791   7.285   2.485  0.0695  0.3218  0.1341
  305PC      C113584   3.877   7.302   2.367  0.2353 -0.1807  0.0812
  305PC      HR13585   3.825   7.315   2.271  0.9148 -0.2493 -0.3069
  305PC      HS13586   3.945   7.384   2.394  0.8597 -0.9082  0.7811
  305PC      C213587   3.958   7.172   2.339 -0.5187  0.6209 -0.2365
  305PC      HX13588   4.029   7.198   2.261 -0.4336 -0.6442 -0.6100
  305PC      C313589   3.853   7.061   2.294 -0.8398 -0.1468 -0.3239
  305PC      HA13590   3.912   6.970   2.284 -0.9142 -0.2105 -0.1894
  305PC      HB13591   3.762   7.043   2.352  0.0518 -1.1482  0.8209
  305PC     O3113592   3.804   7.086   2.157 -0.3906  0.4579 -0.2560
  305PC     P3113593   3.890   7.077   2.021 -0.0928  0.1542  0.0209
  305PC     O3213594   3.954   7.223   2.007 -0.3873  0.6166  0.5320
  305PC     C3113595   3.871   7.341   1.989  0.2693 -0.1741  0.2254
  305PC     H1A13596   3.821   7.337   1.892  0.0045 -0.2844  0.3642
  305PC     H1B13597   3.793   7.334   2.064  0.4022 -1.8712  0.2343
  305PC     C3213598   3.963   7.467   2.013 -0.1487  0.4793  0.1157
  305PC     H2A13599   4.023   7.464   2.104 -0.1172  2.1000  0.1725
  305PC     H2B13600   4.035   7.461   1.932 -0.5196  0.0749 -0.1876
  305PC     N3113601   3.900   7.598   2.012  0.2247  0.3225  0.3263
  305PC     C3313602   3.817   7.609   2.134  0.1843 -0.0461  0.0260
  305PC     H3A13603   3.732   7.541   2.127 -0.8665  1.1602  0.6574
  305PC     H3B13604   3.876   7.582   2.222 -1.1613  0.7601  1.2290
  305PC     H3C13605   3.771   7.707   2.148  1.0839  0.5694 -1.0475
  305PC     C3413606   4.006   7.706   2.020 -0.3055 -0.1151 -0.0816
  305PC     H4A13607   4.072   7.709   1.934 -0.9140  0.1869 -0.5459
  305PC     H4B13608   3.961   7.805   2.034  0.4290  0.3624 -1.0229
  305PC     H4C13609   4.066   7.691   2.111 -2.1798 -1.0020  1.0764
  305PC     C3513610   3.815   7.608   1.897 -0.8423  0.0142 -0.2184
  305PC     H5A13611   3.747   7.523   1.899  0.5086 -1.0797  0.2964
  305PC     H5B13612   3.880   7.611   1.809  0.0435 -0.8789  0.3837
  305PC     H5C13613   3.761   7.703   1.902  0.7602  0.9410  3.6098
  305PC     O3313614   3.999   6.981   2.047 -0.0609 -0.2549 -0.3637
  305PC     O3413615   3.799   7.060   1.903 -0.2110  0.5316 -0.7148
  305PC     O2113616   4.025   7.124   2.461 -0.3374 -0.1860 -0.4353
  305PC     C2113617   4.138   7.178   2.497  0.5179  0.3119 -0.1474
  305PC     O2213618   4.186   7.272   2.438 -0.0890  0.0670  0.2352
  306OL     C1213619   4.207   7.102   2.606 -0.0430 -0.2442  0.8079
  306OL     H2R13620   4.310   7.094   2.570 -0.0380  1.5228  0.3380
  306OL     H2S13621   4.171   7.000   2.617 -2.4673  0.2583 -1.6276
  306OL     C1313622   4.200   7.169   2.744 -0.6981  0.2959  0.5232
  306OL     H3R13623   4.214   7.277   2.729 -0.0190  0.3586  1.5142
  306OL     H3S13624   4.282   7.129   2.803  0.5237 -0.1684 -1.3892
  306OL     C1413625   4.077   7.143   2.831  0.4721  0.7038  0.2692
  306OL     H4R13626   4.060   7.038   2.855 -0.0012  0.6265 -0.3668
  306OL     H4S13627   3.995   7.178   2.769  0.0470 -0.9707 -0.1681
  306OL     C1513628   4.091   7.218   2.966 -0.5416 -0.1349  0.9041
  306OL     H5R13629   4.089   7.323   2.938 -0.6708 -0.6543 -1.2362
  306OL     H5S13630   4.187   7.200   3.015 -0.5549 -0.9422  0.6621
  306OL     C1613631   3.981   7.184   3.064 -0.0943 -0.2899  0.2193
  306OL     H6R13632   3.986   7.076   3.075  2.7021 -0.3959 -1.1044
  306OL     H6S13633   3.882   7.212   3.030 -0.1992 -0.5873  0.2779
  306OL     C1713634   4.005   7.259   3.199 -0.6046  0.7544 -0.6335
  306OL     H7R13635   3.958   7.357   3.184 -1.9474  0.2970  0.3981
  306OL     H7S13636   4.110   7.260   3.226 -0.5843  1.9720 -0.6716
  306OL     C1813637   3.919   7.204   3.322 -0.3662 -0.1454  0.3887
  306OL     H8R13638   3.815   7.223   3.295 -0.1583  1.7618  0.8446
  306OL     H8S13639   3.946   7.247   3.418  1.8423 -0.6032  0.0249
  306OL     C1913640   3.953   7.059   3.348 -0.6334  0.5830  0.5288
  306OL     H9R13641   3.978   7.003   3.258  1.0683 -1.0904  1.9467
  306OL    C11013642   3.931   6.989   3.461 -0.3093  0.3540  0.4617
  306OL    H10R13643   3.959   6.884   3.465  0.4577  0.5824  3.9643
  306OL    C11113644   3.870   7.038   3.593 -0.0711  0.1687  0.7796
  306OL    H11R13645   3.858   7.147   3.588 -0.9615  0.0289 -0.8533
  306OL    H11S13646   3.929   7.021   3.683 -0.6588  1.2884  1.4021
  306OL    C11213647   3.728   6.984   3.619 -0.1688  0.5154  0.1438
  306OL    H12R13648   3.721   6.876   3.607  1.2488  0.4896 -0.7420
  306OL    H12S13649   3.665   7.018   3.536 -2.0892 -0.9237  0.9405
  306OL    C11313650   3.662   7.032   3.749  0.0037  0.6339  0.1060
  306OL    H13R13651   3.652   7.140   3.740  0.6432  0.7224  0.3538
  306OL    H13S13652   3.711   6.992   3.839 -1.5047 -0.1553  0.6119
  306OL    C11413653   3.522   6.979   3.772  0.4316  0.2299  0.1895
  306OL    H14R13654   3.464   6.992   3.681 -0.2556  2.1877  0.8402
  306OL    H14S13655   3.473   7.034   3.853 -0.2823  1.0312 -0.7644
  306OL    C11513656   3.506   6.828   3.809  0.0935  0.4778 -0.7440
  306OL    H15R13657   3.560   6.810   3.902 -0.8914  1.5554  0.0634
  306OL    H15S13658   3.565   6.779   3.731  0.6068 -2.6222  1.3973
  306OL    C11613659   3.367   6.769   3.817  0.5638 -0.4660  0.2313
  306OL    H16R13660   3.372   6.661   3.806 -2.8138 -0.5133 -2.2514
  306OL    H16S13661   3.309   6.808   3.733  1.4665  1.2288  0.3440
  306OL    C11713662   3.297   6.816   3.947 -0.3607  0.3692  0.5701
  306OL    H17R13663   3.310   6.924   3.956 -0.4172  0.4457 -0.1988
  306OL    H17S13664   3.342   6.777   4.038 -1.6941 -2.6563  0.0609
  306OL    C11813665   3.147   6.789   3.961  0.0678 -0.5231  0.7686
  306OL    H18R13666   3.128   6.689   3.923 -0.1895 -0.1285 -0.1770
  306OL    H18S13667   3.080   6.852   3.901 -0.4208 -2.9358 -1.3908
  306OL    H18T13668   3.099   6.780   4.059 -0.2509 -0.5800  0.6092
  307PA    C11613669  -0.958   4.220   3.330  0.3674  0.8320  0.8898
  307PA    H16R13670  -1.035   4.184   3.399  1.9200 -1.1654  1.6561
  307PA    H16S13671  -1.008   4.225   3.233 -0.7301 -0.9444  1.3014
  307PA    H16T13672  -0.925   4.317   3.366  1.8060  1.0596 -0.9119
  307PA    C11513673  -0.846   4.115   3.329 -0.7277 -0.4587 -0.1781
  307PA    H15R13674  -0.758   4.163   3.287 -1.1362  0.9890  0.5637
  307PA    H15S13675  -0.817   4.089   3.431  0.9437 -0.5367 -0.6339
  307PA    C11413676  -0.876   3.984   3.263  0.1531  0.2748  0.1166
  307PA    H14R13677  -0.963   3.941   3.312  0.0015  0.8542  0.3596
  307PA    H14S13678  -0.900   3.998   3.158 -1.6088  0.3355  0.5008
  307PA    C11313679  -0.765   3.880   3.265 -0.2952 -0.4420 -0.0171
  307PA    H13R13680  -0.672   3.923   3.227  0.7066 -2.0122  0.5148
  307PA    H13S13681  -0.738   3.856   3.368 -0.1477  0.8113  0.2478
  307PA    C11213682  -0.794   3.749   3.186 -0.2587 -0.3450  0.8139
  307PA    H12R13683  -0.724   3.668   3.204  0.9945  0.5084 -0.0063
  307PA    H12S13684  -0.894   3.718   3.217 -0.2649 -0.6878  0.4644
  307PA    C11113685  -0.797   3.767   3.029 -0.0018 -0.1536 -0.4992
  307PA    H11R13686  -0.835   3.671   2.994  0.0288 -0.6343  0.7325
  307PA    H11S13687  -0.878   3.833   2.997 -2.6087 -2.9523 -0.1663
  307PA    C11013688  -0.652   3.780   2.970 -0.3401 -0.3009  0.4011
  307PA    H10R13689  -0.605   3.863   3.023 -0.4666  0.2575 -0.3404
  307PA    H10S13690  -0.596   3.690   2.997  0.6491  0.2197  0.1257
  307PA     C1913691  -0.635   3.796   2.820 -0.0639 -0.4540  0.3008
  307PA     H9R13692  -0.720   3.761   2.761  2.1285 -0.2001 -3.2764
  307PA     H9S13693  -0.633   3.902   2.793  2.4086 -0.2916  0.8545
  307PA     C1813694  -0.504   3.744   2.765 -0.3158 -0.5437  0.2089
  307PA     H8R13695  -0.426   3.806   2.809  1.1475 -0.2741 -2.5581
  307PA     H8S13696  -0.485   3.644   2.804 -0.2596  0.1595  2.0549
  307PA     C1713697  -0.494   3.757   2.608 -0.2823  0.3173  0.0178
  307PA     H7R13698  -0.560   3.680   2.567 -1.8873 -0.5065  3.6810
  307PA     H7S13699  -0.534   3.856   2.585 -1.1752  0.4512  1.9185
  307PA     C1613700  -0.351   3.746   2.549  0.3723 -0.4044 -0.8041
  307PA     H6R13701  -0.317   3.645   2.576  2.8315  0.5445 -0.0908
  307PA     H6S13702  -0.356   3.762   2.441 -0.7104  3.8047 -0.2872
  307PA     C1513703  -0.254   3.846   2.614 -0.3464 -0.3101 -0.6022
  307PA     H5R13704  -0.237   3.829   2.720  1.7744  0.5984 -0.7440
  307PA     H5S13705  -0.156   3.826   2.570  0.3692  2.9266 -0.7050
  307PA     C1413706  -0.288   3.992   2.591 -0.0753  0.0607  0.0220
  307PA     H4R13707  -0.375   4.027   2.647  0.4737  1.1115  0.2471
  307PA     H4S13708  -0.205   4.056   2.620 -0.8889  1.5214 -0.7381
  307PA     C1313709  -0.309   4.019   2.442 -0.2545 -0.1749 -0.2532
  307PA     H3R13710  -0.222   3.984   2.386  0.5067  0.3145  0.6075
  307PA     H3S13711  -0.389   3.961   2.395  1.8923 -1.4499 -2.6078
  307PA     C1213712  -0.341   4.169   2.422 -0.0833  0.4665 -0.7060
  307PA     H2R13713  -0.440   4.192   2.460 -0.5659  0.6806 -2.0234
  307PA     H2S13714  -0.268   4.230   2.475  1.6123 -2.3100  0.4096
  308PC     C1113715  -0.335   4.211   2.278 -0.0531  0.3021 -1.2482
  308PC     O1213716  -0.263   4.156   2.200  0.1269 -0.4415 -0.3309
  308PC     O1113717  -0.438   4.290   2.241 -0.0282 -0.0365 -0.2480
  308PC      C113718  -0.452   4.320   2.100 -0.1317 -0.3558 -0.1924
  308PC      HR13719  -0.503   4.415   2.082 -1.5037 -1.3207 -1.6967
  308PC      HS13720  -0.354   4.317   2.052 -0.1789 -2.3758 -0.2254
  308PC      C213721  -0.539   4.212   2.018 -0.2403  0.3540 -0.1793
  308PC      HX13722  -0.489   4.115   2.028 -2.8215 -1.0246  0.2193
  308PC      C313723  -0.568   4.269   1.876  0.3034  0.1933 -0.0693
  308PC      HA13724  -0.639   4.212   1.816  0.4090  1.7962 -1.8308
  308PC      HB13725  -0.612   4.368   1.892 -1.5947 -0.7375  0.7736
  308PC     O3113726  -0.446   4.274   1.809  0.0905 -0.0062  0.2258
  308PC     P3113727  -0.391   4.158   1.719 -0.1885  0.1586  0.4930
  308PC     O3213728  -0.320   4.052   1.817 -0.4572 -0.1694  0.4418
  308PC     C3113729  -0.215   4.095   1.908  0.1406  0.1385 -0.5142
  308PC     H1A13730  -0.213   4.201   1.933  1.0731  0.3526 -1.3976
  308PC     H1B13731  -0.236   4.041   2.001 -0.2478 -1.2264 -1.3636
  308PC     C3213732  -0.081   4.054   1.849 -0.5463  0.1610 -0.0596
  308PC     H2A13733  -0.072   4.094   1.748 -0.8865  0.7375  0.1323
  308PC     H2B13734  -0.003   4.103   1.908 -0.8260  0.5315  0.0045
  308PC     N3113735  -0.050   3.909   1.842 -0.1677 -0.7132  0.1835
  308PC     C3313736   0.094   3.891   1.841 -0.2807 -0.3831  0.2997
  308PC     H3A13737   0.108   3.783   1.841 -0.4600 -0.4072 -0.1296
  308PC     H3B13738   0.137   3.929   1.748  1.0845 -2.1580  0.1661
  308PC     H3C13739   0.152   3.922   1.928  1.0909 -0.8199 -0.4171
  308PC     C3413740  -0.092   3.832   1.960 -0.3118 -0.8876  0.7970
  308PC     H4A13741  -0.197   3.803   1.948 -0.5537 -0.4746  1.7585
  308PC     H4B13742  -0.035   3.739   1.959 -1.1459 -1.4749 -1.9189
  308PC     H4C13743  -0.079   3.897   2.047  1.5619  1.9303 -1.3831
  308PC     C3513744  -0.122   3.853   1.719  0.9435 -0.4443  0.8793
  308PC     H5A13745  -0.067   3.890   1.632  1.5030 -0.7519  1.0940
  308PC     H5B13746  -0.227   3.874   1.737  1.2607 -0.1524  2.6406
  308PC     H5C13747  -0.109   3.745   1.729  1.5009 -0.4159  0.5302
  308PC     O3313748  -0.498   4.084   1.652 -0.0897 -0.1563 -0.0865
  308PC     O3413749  -0.284   4.213   1.630 -0.0357 -0.6124 -0.1095
  308PC     O2113750  -0.668   4.205   2.091  0.1517  0.0536 -0.4521
  308PC     C2113751  -0.690   4.096   2.167  0.1132  0.4701  1.0273
  308PC     O2213752  -0.616   4.001   2.178 -0.0382  0.8821 -0.3214
  309OL     C1213753  -0.820   4.107   2.239 -1.0395  1.0600 -0.0821
  309OL     H2R13754  -0.890   4.036   2.194 -2.4867  1.3645  1.5259
  309OL     H2S13755  -0.861   4.205   2.215  0.3925  1.5319 -0.7102
  309OL     C1313756  -0.799   4.088   2.391 -0.2302 -0.2050 -0.4779
  309OL     H3R13757  -0.704   4.139   2.408  0.4362 -0.3039 -3.4379
  309OL     H3S13758  -0.782   3.986   2.427  0.9484  0.0048 -0.4264
  309OL     C1413759  -0.913   4.150   2.472 -0.3945  0.3065 -0.0925
  309OL     H4R13760  -1.006   4.099   2.447  0.3829 -1.0971 -0.2037
  309OL     H4S13761  -0.928   4.250   2.429  0.5172  0.3146 -0.4081
  309OL     C1513762  -0.895   4.149   2.624  0.0404 -0.5600  0.0471
  309OL     H5R13763  -0.945   4.059   2.661 -0.4322  0.1377  1.1700
  309OL     H5S13764  -0.967   4.226   2.653  0.8539  1.3229 -2.6490
  309OL     C1613765  -0.756   4.171   2.682 -0.4619  0.4031 -1.1120
  309OL     H6R13766  -0.720   4.270   2.653  1.0868 -0.7664 -3.4105
  309OL     H6S13767  -0.685   4.098   2.644  2.1358  2.6238 -0.8071
  309OL     C1713768  -0.768   4.175   2.842 -0.7502  0.0706 -0.6759
  309OL     H7R13769  -0.664   4.178   2.877 -1.3166  1.2327  1.0413
  309OL     H7S13770  -0.797   4.078   2.882 -2.1272  1.3107  1.5581
  309OL     C1813771  -0.841   4.296   2.914  0.3956  0.0187 -0.6694
  309OL     H8R13772  -0.843   4.267   3.019  0.8439 -1.1745 -0.9660
  309OL     H8S13773  -0.948   4.299   2.892  0.1756  0.2790  0.3877
  309OL     C1913774  -0.780   4.429   2.888 -0.9768 -0.0738 -0.4827
  309OL     H9R13775  -0.761   4.453   2.783  3.9540 -5.7665 -1.4115
  309OL    C11013776  -0.742   4.518   2.980  0.0818 -0.1350  0.1393
  309OL    H10R13777  -0.689   4.607   2.945  0.0042 -0.1314  0.0316
  309OL    C11113778  -0.730   4.483   3.127 -0.0740 -0.1612  0.0952
  309OL    H11R13779  -0.707   4.380   3.153 -0.2214 -0.4446 -0.8591
  309OL    H11S13780  -0.833   4.500   3.159 -0.6919 -1.2842 -1.1816
  309OL    C11213781  -0.643   4.580   3.205  0.1806  0.2658 -0.1656
  309OL    H12R13782  -0.678   4.682   3.183  0.8721  0.3508 -0.9260
  309OL    H12S13783  -0.541   4.566   3.169 -0.3464  1.4046 -2.3182
  309OL    C11313784  -0.665   4.546   3.357  0.1159 -0.2554 -0.1033
  309OL    H13R13785  -0.590   4.599   3.417 -2.3612  1.1687  1.9370
  309OL    H13S13786  -0.653   4.439   3.374  2.5789  0.2046  1.7297
  309OL    C11413787  -0.800   4.592   3.415  0.1970  0.3889 -0.4843
  309OL    H14R13788  -0.873   4.523   3.374 -1.3332  2.0505 -0.6372
  309OL    H14S13789  -0.826   4.691   3.379  2.1749  0.2785 -2.3976
  309OL    C11513790  -0.786   4.586   3.572 -0.4865  0.0090 -0.4932
  309OL    H15R13791  -0.891   4.588   3.599 -0.2219 -0.2743  0.6137
  309OL    H15S13792  -0.741   4.678   3.610  1.9251 -0.8387 -1.0748
  309OL    C11613793  -0.722   4.467   3.636 -0.4812  0.4999 -0.1922
  309OL    H16R13794  -0.621   4.461   3.595 -1.2255  1.0290 -2.2500
  309OL    H16S13795  -0.774   4.377   3.601 -0.9605  0.9758 -0.7313
  309OL    C11713796  -0.723   4.478   3.784 -0.7387  0.3223  0.2883
  309OL    H17R13797  -0.825   4.487   3.822 -0.4806 -2.3312  1.8674
  309OL    H17S13798  -0.664   4.561   3.822 -1.5406  0.6786  0.8051
  309OL    C11813799  -0.656   4.351   3.844  0.2445 -0.2263 -0.3689
  309OL    H18R13800  -0.650   4.369   3.952 -1.5261 -0.5766 -0.1904
  309OL    H18S13801  -0.557   4.336   3.799  1.8478  2.4011  1.9475
  309OL    H18T13802  -0.720   4.263   3.834 -0.8798  0.2489  1.9787
  310PA    C11613803   7.881   5.850   4.024  0.3321  0.0254 -0.4631
  310PA    H16R13804   7.803   5.790   4.070  0.4813 -0.1149 -0.3906
  310PA    H16S13805   7.870   5.954   4.054  1.7459 -0.1603  0.8052
  310PA    H16T13806   7.974   5.807   4.061 -0.9428 -2.4424  0.0476
  310PA    C11513807   7.878   5.835   3.873  0.7938 -0.0142  0.1487
  310PA    H15R13808   7.972   5.887   3.853  1.4155 -0.7591  1.0086
  310PA    H15S13809   7.889   5.732   3.841  0.6536  0.4307 -1.3903
  310PA    C11413810   7.753   5.905   3.811  0.3591 -0.6699 -0.3255
  310PA    H14R13811   7.659   5.872   3.855  0.4081  1.0366  1.1791
  310PA    H14S13812   7.763   6.012   3.827 -3.2302 -0.1079 -1.0968
  310PA    C11313813   7.743   5.901   3.658  0.0180 -1.2103  0.0821
  310PA    H13R13814   7.689   5.816   3.616 -2.2789  0.5513 -0.7455
  310PA    H13S13815   7.686   5.983   3.615  0.7044 -0.0879  1.2558
  310PA    C11213816   7.881   5.918   3.590 -0.3520  0.1866 -1.0542
  310PA    H12R13817   7.929   6.011   3.622 -1.5716  0.4197  0.2137
  310PA    H12S13818   7.954   5.839   3.612  1.3381  2.0880  0.6422
  310PA    C11113819   7.872   5.923   3.437  0.0995  0.4644  0.1284
  310PA    H11R13820   7.807   5.845   3.397  1.1336 -0.0366 -0.6209
  310PA    H11S13821   7.840   6.027   3.423 -0.8169  0.0301 -1.0850
  310PA    C11013822   8.012   5.909   3.369  0.0727  0.7630 -0.5393
  310PA    H10R13823   8.066   6.001   3.391 -0.8953  1.0449  0.8697
  310PA    H10S13824   8.067   5.829   3.419 -0.7318  0.5923  0.0889
  310PA     C1913825   8.009   5.882   3.216  0.5569  0.1948  0.6750
  310PA     H9R13826   7.921   5.821   3.193  0.8953  0.5583 -1.8722
  310PA     H9S13827   8.010   5.982   3.172  0.8144  0.4550  1.2604
  310PA     C1813828   8.125   5.816   3.147 -0.1093 -0.3638 -0.4837
  310PA     H8R13829   8.205   5.889   3.132  0.2541 -0.9611 -1.5517
  310PA     H8S13830   8.163   5.737   3.212  1.0878  0.7719  0.2388
  310PA     C1713831   8.075   5.739   3.020  0.4832 -0.8153  0.5628
  310PA     H7R13832   8.164   5.696   2.973  1.6692 -1.2673  3.0636
  310PA     H7S13833   8.006   5.659   3.045 -0.4529 -0.3733 -0.4800
  310PA     C1613834   8.011   5.843   2.923 -0.2156  0.9841 -0.8928
  310PA     H6R13835   7.909   5.866   2.955  0.4425  0.1832  2.0687
  310PA     H6S13836   8.056   5.942   2.929  0.3368  0.6897  0.0946
  310PA     C1513837   8.005   5.795   2.780  0.5186  0.8449  0.6270
  310PA     H5R13838   8.099   5.811   2.727  0.7060  1.2195  1.0646
  310PA     H5S13839   7.984   5.689   2.794  0.1335  1.1540  2.7566
  310PA     C1413840   7.887   5.866   2.705 -0.0142  0.3273  0.4915
  310PA     H4R13841   7.844   5.794   2.634 -0.8406 -0.5109  1.7847
  310PA     H4S13842   7.806   5.892   2.774 -0.8217  0.2173 -0.3814
  310PA     C1313843   7.934   5.990   2.626  0.6586  0.0849 -0.6038
  310PA     H3R13844   7.911   6.084   2.677 -0.5173 -1.2402  1.4320
  310PA     H3S13845   8.042   5.990   2.609  0.5221  0.0788 -1.5292
  310PA     C1213846   7.856   6.000   2.489 -0.1441  0.0085  0.3841
  310PA     H2R13847   7.748   5.987   2.502  0.0044 -0.7444  0.9878
  310PA     H2S13848   7.870   6.096   2.439  0.3273  0.1986  0.8617
  311PC     C1113849   7.904   5.902   2.381  0.0112  0.4043  0.9953
  311PC     O1213850   8.003   5.829   2.398  0.1091 -0.3078  0.2502
  311PC     O1113851   7.834   5.902   2.262 -0.9070 -0.6705 -0.3422
  311PC      C113852   7.860   5.810   2.157 -0.5277 -0.2632  0.2905
  311PC      HR13853   7.826   5.861   2.067 -0.5187 -1.6394 -0.5179
  311PC      HS13854   7.963   5.780   2.138 -0.9656 -1.4968 -0.2348
  311PC      C213855   7.774   5.683   2.167  0.1748  0.0938 -0.3089
  311PC      HX13856   7.818   5.602   2.109 -0.2418 -1.1392  1.0297
  311PC      C313857   7.631   5.708   2.119 -0.3054  0.8855  0.5008
  311PC      HA13858   7.560   5.627   2.136 -0.0911  0.9212  1.6516
  311PC      HB13859   7.597   5.798   2.170 -0.8880 -0.0734  1.8719
  311PC     O3113860   7.625   5.732   1.978 -0.9891 -0.9177  0.0376
  311PC     P3113861   7.616   5.613   1.868  0.3256  0.0223 -0.2380
  311PC     O3213862   7.757   5.543   1.869 -0.2232  0.4215  0.0724
  311PC     C3113863   7.880   5.608   1.837  0.5235  0.2122  0.6601
  311PC     H1A13864   7.861   5.701   1.783  0.8823 -0.3618 -0.4757
  311PC     H1B13865   7.932   5.638   1.929  1.3783  0.7726  0.0092
  311PC     C3213866   7.965   5.513   1.739 -0.5707 -0.2664 -0.3495
  311PC     H2A13867   7.978   5.414   1.784  1.9441  0.2424  0.1602
  311PC     H2B13868   7.904   5.498   1.650 -0.7006 -0.9144 -0.1574
  311PC     N3113869   8.104   5.555   1.695  0.1593  0.6669  0.0228
  311PC     C3313870   8.097   5.649   1.589 -0.0229 -0.5505  0.0232
  311PC     H3A13871   8.195   5.665   1.543 -1.1677  1.2367 -2.0057
  311PC     H3B13872   8.024   5.618   1.514 -0.0083  1.9494 -1.1495
  311PC     H3C13873   8.065   5.745   1.630  1.1025 -1.2438  2.6833
  311PC     C3413874   8.189   5.605   1.802  0.3986 -0.0423 -0.6305
  311PC     H4A13875   8.271   5.659   1.754  0.0356 -1.2612 -2.7581
  311PC     H4B13876   8.137   5.679   1.864  0.2027  1.7445 -2.8103
  311PC     H4C13877   8.231   5.522   1.858 -0.6778 -0.1382  0.0671
  311PC     C3513878   8.183   5.439   1.634  0.0461 -0.1638 -1.1045
  311PC     H5A13879   8.234   5.392   1.717 -1.6292 -1.7766 -0.9144
  311PC     H5B13880   8.249   5.471   1.553 -0.4447  0.4914 -1.2622
  311PC     H5C13881   8.112   5.364   1.597  0.3071  0.4944 -3.0903
  311PC     O3313882   7.517   5.517   1.916  0.1093 -0.7035 -0.5190
  311PC     O3413883   7.603   5.667   1.727  0.3192 -0.0682  0.2161
  311PC     O2113884   7.773   5.641   2.308  0.3208 -0.1354 -0.3356
  311PC     C2113885   7.840   5.530   2.346  0.6126 -0.5142  0.5477
  311PC     O2213886   7.902   5.461   2.270 -0.3461  0.3066 -0.0177
  312OL     C1213887   7.818   5.500   2.497  0.0195  0.0759  0.3092
  312OL     H2R13888   7.739   5.425   2.509 -1.4904  1.2265 -1.7077
  312OL     H2S13889   7.786   5.594   2.543 -1.1843 -0.2371  0.1527
  312OL     C1313890   7.940   5.448   2.570  1.0065 -0.3865 -0.3251
  312OL     H3R13891   8.015   5.528   2.574  1.1110 -0.4773 -0.4456
  312OL     H3S13892   7.990   5.365   2.519  0.1281 -0.0663 -1.7341
  312OL     C1413893   7.906   5.398   2.716 -0.2040 -0.0747  0.7028
  312OL     H4R13894   7.855   5.303   2.705 -2.3457  1.1611 -0.7021
  312OL     H4S13895   7.847   5.475   2.766 -0.7261  0.7278 -1.0744
  312OL     C1513896   8.030   5.372   2.806 -0.2265  0.1597 -0.3606
  312OL     H5R13897   8.068   5.475   2.812  0.3439 -0.1004  0.6427
  312OL     H5S13898   8.101   5.308   2.754  0.8019 -0.6818  1.9650
  312OL     C1613899   8.015   5.326   2.946 -0.4196  0.0036 -0.1867
  312OL     H6R13900   8.012   5.420   3.002 -0.5429 -0.2066  0.1589
  312OL     H6S13901   8.114   5.285   2.965  1.0861  1.8105 -3.2813
  312OL     C1713902   7.898   5.230   2.975  0.4160 -0.1586 -0.3043
  312OL     H7R13903   7.807   5.261   2.924 -0.2081 -0.2795  0.7092
  312OL     H7S13904   7.876   5.245   3.081 -0.8498 -0.1817 -0.5489
  312OL     C1813905   7.923   5.083   2.952 -0.3020 -0.6105 -0.1914
  312OL     H8R13906   7.826   5.033   2.953 -0.6538  0.0524  0.9495
  312OL     H8S13907   7.985   5.049   3.035 -0.3143  0.8663  0.4670
  312OL     C1913908   7.983   5.067   2.822  0.4398 -0.2252 -0.5764
  312OL     H9R13909   7.916   5.105   2.746 -0.1015 -1.7419 -0.8970
  312OL    C11013910   8.100   5.009   2.791 -0.0012 -0.5710 -0.2386
  312OL    H10R13911   8.121   4.984   2.687 -0.3144  0.5536 -0.5908
  312OL    C11113912   8.202   4.972   2.898 -1.3509  0.1734 -0.1596
  312OL    H11R13913   8.194   4.865   2.915 -0.5319  0.4567  2.4147
  312OL    H11S13914   8.194   5.028   2.992 -2.1763  1.5124 -1.0014
  312OL    C11213915   8.349   4.988   2.846  0.2187  0.4324 -0.0729
  312OL    H12R13916   8.382   5.092   2.854 -1.0766  0.9476 -1.0638
  312OL    H12S13917   8.354   4.967   2.739  1.1518  2.0578 -0.3726
  312OL    C11313918   8.454   4.906   2.926 -0.5101 -0.1535  0.8029
  312OL    H13R13919   8.556   4.937   2.902 -0.8408  0.9662  0.7963
  312OL    H13S13920   8.439   4.799   2.907 -0.0907  0.0556 -0.8323
  312OL    C11413921   8.443   4.938   3.074  0.2635 -0.8171 -0.7300
  312OL    H14R13922   8.347   4.903   3.114  1.8589 -0.9870  3.5167
  312OL    H14S13923   8.447   5.047   3.078 -1.5670 -0.6738 -1.7226
  312OL    C11513924   8.557   4.879   3.161 -0.2389 -0.2978 -0.4184
  312OL    H15R13925   8.655   4.923   3.141  0.0075  0.6787  2.4890
  312OL    H15S13926   8.560   4.770   3.149  1.2058 -0.5430  1.5454
  312OL    C11613927   8.517   4.912   3.308 -0.1377  0.1598  0.3675
  312OL    H16R13928   8.426   4.858   3.336 -0.7399  1.1697  0.4203
  312OL    H16S13929   8.491   5.016   3.329  0.6608  0.2379  0.9911
  312OL    C11713930   8.626   4.881   3.410 -0.4350 -0.7468 -0.5615
  312OL    H17R13931   8.620   4.946   3.497  0.3824 -0.6202 -0.5888
  312OL    H17S13932   8.721   4.914   3.368 -0.4746 -0.9918 -0.8482
  312OL    C11813933   8.641   4.732   3.444 -0.5534  0.2547 -1.2997
  312OL    H18R13934   8.649   4.669   3.354 -0.1775  0.0788 -1.1469
  312OL    H18S13935   8.558   4.697   3.505 -0.8203  0.6952 -1.4091
  312OL    H18T13936   8.733   4.728   3.503 -0.8646  2.9640 -0.5171
  313PA    C11613937   5.907   2.057   3.565 -0.3764  0.6246 -0.5441
  313PA    H16R13938   5.975   2.072   3.650 -0.9459 -2.6799  0.6321
  313PA    H16S13939   5.809   2.060   3.611 -1.1978  0.8531 -2.2319
  313PA    H16T13940   5.920   2.137   3.491  1.5871  0.7570 -0.1300
  313PA    C11513941   5.927   1.915   3.502  0.7007 -0.0712  0.0147
  313PA    H15R13942   5.885   1.849   3.579 -0.6083  0.4782 -0.1946
  313PA    H15S13943   5.866   1.916   3.412  1.7699  1.4071 -0.7297
  313PA    C11413944   6.068   1.872   3.479  0.2102 -0.6941 -0.0021
  313PA    H14R13945   6.118   1.945   3.415 -0.9968 -0.3747 -0.6112
  313PA    H14S13946   6.125   1.861   3.571 -0.0658 -0.0474  0.2503
  313PA    C11313947   6.074   1.742   3.412  0.1975 -0.4843  0.0287
  313PA    H13R13948   6.181   1.719   3.410  0.4447  0.4751  1.5237
  313PA    H13S13949   6.017   1.677   3.478 -1.9188  0.6070 -0.6413
  313PA    C11213950   6.018   1.742   3.260  0.2405  0.0504 -0.7246
  313PA    H12R13951   6.025   1.643   3.216 -1.7478 -0.6300  0.3709
  313PA    H12S13952   5.910   1.756   3.255  0.1891  0.1040  0.3109
  313PA    C11113953   6.094   1.832   3.161  0.5817  0.1398 -0.8864
  313PA    H11R13954   6.056   1.933   3.180  0.0156 -0.1996 -0.1355
  313PA    H11S13955   6.199   1.839   3.190 -0.2459 -1.3712  3.1822
  313PA    C11013956   6.061   1.790   3.019  0.0288  0.6775  0.4991
  313PA    H10R13957   6.091   1.685   3.011 -1.1376  0.4583 -1.3506
  313PA    H10S13958   5.953   1.781   3.022  0.1883 -1.9086  1.1110
  313PA     C1913959   6.102   1.884   2.911 -0.3587 -0.6183  0.1199
  313PA     H9R13960   6.055   1.847   2.820  1.5695  0.1181 -1.2473
  313PA     H9S13961   6.065   1.986   2.925  0.0983 -0.5397  0.7837
  313PA     C1813962   6.252   1.905   2.879 -0.4902  0.3025  0.4026
  313PA     H8R13963   6.291   1.976   2.952  0.3433 -0.5236  0.7740
  313PA     H8S13964   6.306   1.810   2.877 -0.3910  0.3358 -2.3492
  313PA     C1713965   6.287   1.975   2.742 -0.1118  0.1968  0.2808
  313PA     H7R13966   6.252   2.079   2.749 -0.2587  0.1689  0.0087
  313PA     H7S13967   6.395   1.984   2.730 -0.1201 -1.6540 -1.7367
  313PA     C1613968   6.233   1.918   2.612  0.5995 -0.0315  0.1423
  313PA     H6R13969   6.125   1.935   2.618  0.7210  1.0595 -0.4851
  313PA     H6S13970   6.269   1.977   2.528  0.2862  1.5150  1.0659
  313PA     C1513971   6.258   1.766   2.590  0.6197  0.2303 -0.5049
  313PA     H5R13972   6.208   1.712   2.671 -1.2636  0.7739 -1.2554
  313PA     H5S13973   6.218   1.737   2.493  0.9070  1.2754 -0.9430
  313PA     C1413974   6.407   1.720   2.591  0.2616  0.0566  0.2966
  313PA     H4R13975   6.460   1.754   2.502 -1.3087 -2.9259 -1.9746
  313PA     H4S13976   6.455   1.765   2.678 -1.8743 -1.1251  2.2012
  313PA     C1313977   6.429   1.572   2.605 -0.3912 -0.5105 -0.2599
  313PA     H3R13978   6.536   1.556   2.612  0.0788  2.1918  0.0170
  313PA     H3S13979   6.388   1.543   2.702 -1.6831  0.3712 -0.5115
  313PA     C1213980   6.359   1.476   2.503  0.4510  0.1911 -0.5309
  313PA     H2R13981   6.362   1.372   2.537 -3.6865  1.1475  3.8014
  313PA     H2S13982   6.251   1.490   2.500  0.4458  0.0008 -1.3900
  314PC     C1113983   6.398   1.507   2.364 -0.2569 -0.3766 -0.3243
  314PC     O1213984   6.347   1.600   2.297 -0.4235 -0.0605 -0.1730
  314PC     O1113985   6.474   1.408   2.308 -0.2651 -0.0220  0.3591
  314PC      C113986   6.487   1.394   2.164 -0.0764 -0.8395 -0.9317
  314PC      HR13987   6.559   1.314   2.145  2.4144  1.3085 -1.0409
  314PC      HS13988   6.393   1.378   2.111  0.3868  2.0451 -2.8801
  314PC      C213989   6.557   1.513   2.100  0.2988 -0.2118  0.0450
  314PC      HX13990   6.495   1.602   2.116 -0.9076 -0.6188 -2.0527
  314PC      C313991   6.576   1.496   1.941  0.6396  0.3663 -0.6958
  314PC      HA13992   6.618   1.585   1.894 -0.7824  1.9542  0.9192
  314PC      HB13993   6.638   1.408   1.922  4.5332  2.8458 -0.4072
  314PC     O3113994   6.445   1.464   1.880  1.2393 -0.2737  0.1800
  314PC     P3113995   6.328   1.577   1.859 -0.0814 -0.1181 -0.0528
  314PC     O3213996   6.322   1.579   1.695 -0.0093 -0.0867 -0.2534
  314PC     C3113997   6.421   1.651   1.619 -0.1090  0.1965  0.0605
  314PC     H1A13998   6.381   1.710   1.536  1.3507  0.6027 -0.3864
  314PC     H1B13999   6.468   1.728   1.681  0.0521 -0.3885  0.6804
  314PC     C3214000   6.529   1.550   1.566  0.2312 -0.4223 -0.0117
  314PC     H2A14001   6.602   1.620   1.524 -0.5782  0.7162  0.4016
  314PC     H2B14002   6.569   1.487   1.644 -0.0222 -0.0274  0.4438
  314PC     N3114003   6.509   1.450   1.461  0.2916  0.0106  0.1792
  314PC     C3314004   6.406   1.353   1.493 -0.1166 -0.3033 -0.1210
  314PC     H3A14005   6.324   1.398   1.549 -0.0399  2.0757 -1.7840
  314PC     H3B14006   6.367   1.308   1.402 -0.2160  0.2101 -0.3355
  314PC     H3C14007   6.454   1.272   1.549  1.0567 -0.3879 -1.2064
  314PC     C3414008   6.465   1.523   1.340  0.2783  0.7937  0.0729
  314PC     H4A14009   6.363   1.554   1.364 -0.3424  0.2843 -1.7279
  314PC     H4B14010   6.525   1.610   1.315 -2.4034  2.3122 -1.5119
  314PC     H4C14011   6.471   1.446   1.263 -0.1193 -1.2711  1.9863
  314PC     C3514012   6.628   1.373   1.434 -0.2926  0.4898 -0.2546
  314PC     H5A14013   6.633   1.322   1.338  0.8146 -1.2942  0.6886
  314PC     H5B14014   6.638   1.304   1.518 -0.7473  0.0231 -0.5767
  314PC     H5C14015   6.718   1.435   1.441 -0.7881  1.0383  2.0496
  314PC     O3314016   6.204   1.516   1.917  0.5250 -0.0198 -0.0093
  314PC     O3414017   6.369   1.713   1.901 -0.0341 -0.6800  0.1575
  314PC     O2114018   6.691   1.538   2.155  0.1797  0.2708 -0.2899
  314PC     C2114019   6.745   1.661   2.159 -0.5850  0.2980 -0.6580
  314PC     O2214020   6.689   1.760   2.118  0.1022 -0.0798  0.3349
  315OL     C1214021   6.883   1.656   2.222  0.4562  0.2925  0.5215
  315OL     H2R14022   6.968   1.700   2.169  3.1144 -1.7323  2.8061
  315OL     H2S14023   6.912   1.551   2.225  0.8873  0.3887 -0.0338
  315OL     C1314024   6.905   1.718   2.359  0.2002 -0.2257  0.2203
  315OL     H3R14025   6.865   1.820   2.362 -3.9179 -1.6491 -0.1571
  315OL     H3S14026   7.012   1.726   2.380 -0.0328  0.4034  1.2883
  315OL     C1414027   6.837   1.657   2.484 -0.3370 -0.0271  0.1015
  315OL     H4R14028   6.856   1.550   2.468 -0.3199 -0.0629  0.3422
  315OL     H4S14029   6.728   1.669   2.482 -0.4162 -0.6969 -0.0723
  315OL     C1514030   6.905   1.703   2.609  0.3829 -0.0869 -0.0138
  315OL     H5R14031   6.919   1.811   2.613 -1.1518  0.1897 -1.0912
  315OL     H5S14032   7.012   1.681   2.615  1.1840  3.0624 -0.9005
  315OL     C1614033   6.839   1.650   2.741  0.5510 -0.4185  1.1347
  315OL     H6R14034   6.837   1.541   2.745  0.6806 -0.7003 -2.9115
  315OL     H6S14035   6.734   1.682   2.746  0.7112  0.1930  0.7351
  315OL     C1714036   6.900   1.708   2.868 -0.0413  0.4997  0.7098
  315OL     H7R14037   6.887   1.816   2.858 -1.5804  0.2730 -0.1133
  315OL     H7S14038   7.008   1.693   2.870 -0.0583  0.0081 -0.9790
  315OL     C1814039   6.825   1.666   2.993  0.4528 -0.0442  0.4250
  315OL     H8R14040   6.866   1.568   3.020 -0.7502 -0.9665 -0.9342
  315OL     H8S14041   6.719   1.653   2.970  0.8321 -2.3639 -0.3139
  315OL     C1914042   6.836   1.783   3.092  0.4475  1.2014  0.4790
  315OL     H9R14043   6.783   1.871   3.057  1.9645  2.5725  1.4413
  315OL    C11014044   6.877   1.774   3.221  0.5360  0.9083  0.5798
  315OL    H10R14045   6.874   1.861   3.286  0.8120 -1.4193  3.9492
  315OL    C11114046   6.959   1.664   3.269 -0.3146  0.1770 -0.0606
  315OL    H11R14047   7.055   1.702   3.304  0.5593 -1.2223 -0.8111
  315OL    H11S14048   6.990   1.592   3.192 -1.3187  1.2562 -1.5183
  315OL    C11214049   6.896   1.596   3.391  0.0443 -0.6015 -0.3165
  315OL    H12R14050   6.944   1.502   3.419  0.6298 -0.5063 -0.9525
  315OL    H12S14051   6.796   1.560   3.365 -0.6736  1.0945  0.0263
  315OL    C11314052   6.870   1.680   3.515  0.6989  0.9306  0.6084
  315OL    H13R14053   6.794   1.635   3.579  1.7446 -2.4011 -0.3057
  315OL    H13S14054   6.831   1.780   3.491 -0.4747  0.1732 -0.8362
  315OL    C11414055   6.993   1.711   3.591 -0.1107  0.4058 -0.4992
  315OL    H14R14056   7.045   1.783   3.528  3.2090 -0.1444  1.3506
  315OL    H14S14057   7.056   1.622   3.602  0.6880  1.2107  1.9866
  315OL    C11514058   6.959   1.778   3.730  0.2811 -0.0143 -0.2709
  315OL    H15R14059   6.897   1.705   3.783  1.4637 -0.6105  0.3251
  315OL    H15S14060   6.897   1.868   3.725  2.0492  1.3251  0.6939
  315OL    C11614061   7.093   1.788   3.804  0.3201 -0.7880 -0.0991
  315OL    H16R14062   7.148   1.874   3.765 -0.4403  0.2109  0.9618
  315OL    H16S14063   7.153   1.698   3.788  0.2262 -0.7260 -0.8276
  315OL    C11714064   7.072   1.807   3.959 -0.7103  0.3446  0.1327
  315OL    H17R14065   7.165   1.798   4.016  0.2529  1.2761 -1.2307
  315OL    H17S14066   7.019   1.722   4.004 -2.5854  1.3659 -0.0400
  315OL    C11814067   6.990   1.926   4.006 -0.3967  0.0150  0.1500
  315OL    H18R14068   6.907   1.949   3.939 -0.3362 -0.3943 -0.0695
  315OL    H18S14069   7.052   2.016   4.001  0.6759 -0.7259 -0.1960
  315OL    H18T14070   6.938   1.905   4.100  2.7458 -1.1491  1.7520
  316PA    C11614071   4.173   2.816   3.831 -0.3471 -0.6567  0.5758
  316PA    H16R14072   4.180   2.922   3.859 -0.3501  0.4058 -2.9687
  316PA    H16S14073   4.275   2.780   3.818 -0.8636 -3.2442  2.7990
  316PA    H16T14074   4.141   2.745   3.907  2.3422 -1.3595  1.1259
  316PA    C11514075   4.093   2.801   3.705  0.2416  0.0776 -0.8852
  316PA    H15R14076   4.068   2.695   3.692  0.7008 -0.5429  2.4689
  316PA    H15S14077   4.002   2.857   3.727  1.1188  1.4194 -0.5715
  316PA    C11414078   4.152   2.873   3.579 -0.7093  0.1352 -0.0464
  316PA    H14R14079   4.189   2.973   3.603 -1.6278  0.6627 -0.7503
  316PA    H14S14080   4.235   2.814   3.540 -2.3386 -1.6491 -1.0025
  316PA    C11314081   4.053   2.886   3.466 -0.3933  0.1120  0.4223
  316PA    H13R14082   4.005   2.788   3.455  1.9776 -0.9763 -1.0371
  316PA    H13S14083   3.965   2.948   3.484 -0.9045  0.0402 -1.5738
  316PA    C11214084   4.108   2.932   3.334  0.4121  0.1764 -0.1157
  316PA    H12R14085   4.158   3.024   3.364 -0.2604 -0.2059  2.4087
  316PA    H12S14086   4.187   2.867   3.299  0.4792  0.9262 -1.4325
  316PA    C11114087   3.993   2.975   3.237 -0.1731  0.5643  0.0784
  316PA    H11R14088   3.933   3.050   3.288 -1.0364 -1.3331  2.0255
  316PA    H11S14089   4.039   3.034   3.157  1.7729  0.4079  1.0031
  316PA    C11014090   3.900   2.866   3.180 -0.0314 -0.5561  0.4684
  316PA    H10R14091   3.842   2.831   3.266 -0.8698  1.1642  0.6461
  316PA    H10S14092   3.819   2.914   3.125 -1.7073 -2.1604  1.4261
  316PA     C1914093   3.976   2.759   3.100 -0.2722  0.2837  0.0658
  316PA     H9R14094   4.054   2.723   3.168 -0.9293  1.1147  1.3046
  316PA     H9S14095   3.910   2.674   3.083  0.7091 -0.1662 -1.7544
  316PA     C1814096   4.031   2.790   2.959 -0.3175 -0.1800 -0.6610
  316PA     H8R14097   4.086   2.884   2.955 -2.8639  1.4404 -0.2385
  316PA     H8S14098   4.104   2.712   2.935 -2.2455 -1.6480 -2.2181
  316PA     C1714099   3.924   2.783   2.848  0.3599 -0.8397  0.1752
  316PA     H7R14100   3.958   2.727   2.761 -0.5295 -0.1185 -0.6681
  316PA     H7S14101   3.833   2.735   2.887  0.7582 -2.3892 -0.7469
  316PA     C1614102   3.878   2.925   2.812  0.2828  0.5645  1.0371
  316PA     H6R14103   3.833   2.970   2.901 -0.9902 -2.4527  2.0394
  316PA     H6S14104   3.972   2.979   2.801  2.4262 -2.2375  3.9934
  316PA     C1514105   3.786   2.933   2.690  0.2986  1.2225  0.1764
  316PA     H5R14106   3.686   2.895   2.713  0.4879 -0.8427 -1.9620
  316PA     H5S14107   3.768   3.037   2.663 -4.5601  0.1798 -1.6714
  316PA     C1414108   3.823   2.859   2.559  0.1016 -0.0781  0.6520
  316PA     H4R14109   3.912   2.901   2.512  0.9939 -2.3472  0.1980
  316PA     H4S14110   3.833   2.752   2.578  0.2790 -0.5778 -1.9314
  316PA     C1314111   3.708   2.876   2.452 -0.7747  0.3953  0.3258
  316PA     H3R14112   3.734   2.806   2.373 -0.5791  0.7979  0.0267
  316PA     H3S14113   3.611   2.844   2.492  0.2377 -0.2496  2.4007
  316PA     C1214114   3.706   3.016   2.394  0.5848 -0.2225  0.5464
  316PA     H2R14115   3.658   3.089   2.460 -0.9608 -1.4091  0.7854
  316PA     H2S14116   3.804   3.056   2.367 -0.0003  1.0449  0.1988
  317PC     C1114117   3.630   3.024   2.262  0.1896  0.0157 -0.0553
  317PC     O1214118   3.687   3.036   2.154 -0.0626 -0.1373  0.2490
  317PC     O1114119   3.493   3.025   2.275 -0.2988 -0.3025 -0.1964
  317PC      C114120   3.404   3.028   2.153 -0.3032 -0.3582  0.4068
  317PC      HR14121   3.316   3.087   2.180 -0.3241 -0.7814  1.2992
  317PC      HS14122   3.451   3.079   2.068 -1.5597  0.6300  0.2645
  317PC      C214123   3.355   2.886   2.114 -0.0899  0.2179 -0.0853
  317PC      HX14124   3.441   2.827   2.083  0.3794  1.4142 -1.1755
  317PC      C314125   3.272   2.905   1.987 -0.2691  0.0807 -0.3371
  317PC      HA14126   3.223   2.811   1.961 -0.8050 -0.0989  1.2292
  317PC      HB14127   3.190   2.974   2.008 -0.2957 -0.4289  1.3595
  317PC     O3114128   3.351   2.972   1.881 -0.5423 -0.8629 -0.2669
  317PC     P3114129   3.454   2.892   1.791  0.0086  0.3974  0.4527
  317PC     O3214130   3.596   2.958   1.828 -0.1702  0.7491 -0.0305
  317PC     C3114131   3.621   3.098   1.817  0.2598  0.3823  0.3378
  317PC     H1A14132   3.531   3.159   1.810  0.8820  1.1373 -1.5756
  317PC     H1B14133   3.677   3.129   1.906  0.5029  2.8029 -0.5669
  317PC     C3214134   3.712   3.125   1.700 -0.1669  0.2663  0.2541
  317PC     H2A14135   3.657   3.079   1.618  0.4865 -2.7756  1.3446
  317PC     H2B14136   3.725   3.231   1.679 -1.5374  0.0625 -1.8453
  317PC     N3114137   3.848   3.061   1.699  0.5305  0.4604  0.6611
  317PC     C3314138   3.936   3.113   1.807 -1.1071 -1.2575  0.3022
  317PC     H3A14139   3.928   3.222   1.803 -1.2050 -1.3054 -1.8247
  317PC     H3B14140   3.898   3.070   1.901 -1.1295  0.8575  1.3235
  317PC     H3C14141   4.041   3.095   1.786 -0.5419  1.4359  0.4376
  317PC     C3414142   3.846   2.914   1.696  0.2505 -0.8616 -0.1636
  317PC     H4A14143   3.949   2.888   1.670  0.6309  0.9184 -0.5765
  317PC     H4B14144   3.807   2.888   1.794 -0.4162  0.9921  0.1010
  317PC     H4C14145   3.781   2.891   1.611 -1.3693  1.6245  0.3185
  317PC     C3514146   3.920   3.095   1.568  0.0910 -0.7782  0.1907
  317PC     H5A14147   4.009   3.035   1.548 -0.5928 -1.4910 -0.8279
  317PC     H5B14148   3.944   3.201   1.575 -0.6648 -0.4351 -1.7086
  317PC     H5C14149   3.848   3.075   1.488 -1.2561 -1.1715  1.4693
  317PC     O3314150   3.452   2.746   1.827  0.1515 -0.0165 -0.0110
  317PC     O3414151   3.424   2.922   1.651  0.1502 -0.0083  0.2455
  317PC     O2114152   3.280   2.824   2.217  0.3938  0.2322  0.5292
  317PC     C2114153   3.337   2.767   2.321 -0.4765 -0.5407  0.0266
  317PC     O2214154   3.448   2.727   2.325 -0.6400  0.2661  0.2775
  318OL     C1214155   3.241   2.768   2.437 -0.1265 -0.3841  0.3643
  318OL     H2R14156   3.177   2.680   2.430 -3.1345  1.5469  1.7117
  318OL     H2S14157   3.174   2.854   2.430 -0.3880 -0.5756  0.4863
  318OL     C1314158   3.320   2.770   2.573  0.5974 -0.3046 -0.2091
  318OL     H3R14159   3.379   2.861   2.572  0.5261 -0.2517  0.3826
  318OL     H3S14160   3.391   2.687   2.577  0.0751 -0.8174 -1.1008
  318OL     C1414161   3.229   2.783   2.694 -0.4963 -0.3362  0.2555
  318OL     H4R14162   3.176   2.878   2.683  0.6337  0.3406  0.4127
  318OL     H4S14163   3.294   2.802   2.779 -2.3963  0.4205  1.6140
  318OL     C1514164   3.131   2.668   2.723  0.1622 -0.0871  0.0364
  318OL     H5R14165   3.180   2.576   2.691  1.8361  1.2457 -1.4524
  318OL     H5S14166   3.044   2.663   2.657  0.2596 -0.9406 -0.0319
  318OL     C1614167   3.089   2.660   2.873 -0.0916  0.4677 -0.0801
  318OL     H6R14168   3.013   2.582   2.884  1.5677 -1.1890  0.2443
  318OL     H6S14169   3.048   2.756   2.905 -0.2941  0.4958 -0.4136
  318OL     C1714170   3.206   2.622   2.969 -0.3685  0.3172 -0.4830
  318OL     H7R14171   3.287   2.695   2.963 -0.8967  0.8462 -1.3573
  318OL     H7S14172   3.242   2.522   2.943  1.7847  0.9212 -0.0140
  318OL     C1814173   3.158   2.635   3.108  0.1896 -0.3095 -0.3202
  318OL     H8R14174   3.091   2.553   3.130  1.3349 -2.1976 -3.1873
  318OL     H8S14175   3.101   2.727   3.117  0.0305 -0.0827 -2.8977
  318OL     C1914176   3.275   2.610   3.201  0.2760 -0.0331  0.1268
  318OL     H9R14177   3.340   2.528   3.171 -1.2634 -2.0141  1.8589
  318OL    C11014178   3.295   2.674   3.312 -0.0093  0.5814  0.5825
  318OL    H10R14179   3.363   2.622   3.379 -2.4293 -0.9999  1.9450
  318OL    C11114180   3.224   2.798   3.359  0.2689  0.8005 -0.5654
  318OL    H11R14181   3.197   2.861   3.275  0.8956  0.6620 -0.8827
  318OL    H11S14182   3.293   2.864   3.413 -0.5401  0.9939  0.2511
  318OL    C11214183   3.099   2.760   3.453 -0.3897 -0.5158  0.0182
  318OL    H12R14184   3.149   2.705   3.533  1.5440  3.3251  1.6756
  318OL    H12S14185   3.016   2.707   3.405 -1.5573  2.6886 -1.7818
  318OL    C11314186   3.047   2.886   3.522 -0.2102  0.0786  1.0274
  318OL    H13R14187   3.131   2.941   3.564  0.3910 -0.6857  0.8643
  318OL    H13S14188   2.985   2.858   3.608 -1.9549  1.4087  0.2691
  318OL    C11414189   2.961   2.970   3.422 -0.2387  0.4483  0.0016
  318OL    H14R14190   2.888   2.911   3.366 -1.7506  2.3962 -0.2003
  318OL    H14S14191   3.028   3.014   3.349 -3.4436  1.3099 -2.6703
  318OL    C11514192   2.873   3.079   3.478  0.6255  0.4107  0.0328
  318OL    H15R14193   2.934   3.151   3.533  2.0209 -1.5123  1.1192
  318OL    H15S14194   2.803   3.051   3.556  1.4487  0.4167  0.7911
  318OL    C11614195   2.803   3.166   3.367 -0.1247  0.0295  0.3130
  318OL    H16R14196   2.880   3.216   3.308 -2.7861  2.6076 -1.2386
  318OL    H16S14197   2.745   3.242   3.421 -1.2876  0.8786 -1.9900
  318OL    C11714198   2.702   3.076   3.287  0.8661 -0.0419 -0.0727
  318OL    H17R14199   2.649   3.011   3.357  1.0685 -0.1993 -0.0650
  318OL    H17S14200   2.754   3.009   3.218  0.1362 -0.2205 -0.4624
  318OL    C11814201   2.592   3.170   3.229  0.1915  0.5576 -0.4575
  318OL    H18R14202   2.515   3.131   3.162 -0.6531 -0.5294  1.0695
  318OL    H18S14203   2.632   3.256   3.176 -0.6265  0.9617 -0.4358
  318OL    H18T14204   2.534   3.212   3.312  2.0245  1.1877  0.5605
  319PA    C11614205   6.363  -1.026   3.785 -0.3370  1.0426 -0.1132
  319PA    H16R14206   6.387  -0.920   3.786  4.6157  0.1451 -0.5705
  319PA    H16S14207   6.392  -1.072   3.880  1.7117  2.9981  0.2646
  319PA    H16T14208   6.258  -1.045   3.763  0.7200 -5.6457 -1.6732
  319PA    C11514209   6.453  -1.086   3.676  0.8464  0.1741 -0.6782
  319PA    H15R14210   6.461  -1.194   3.673  1.1178  0.0734  1.6591
  319PA    H15S14211   6.395  -1.051   3.590  0.1679 -1.7431 -1.0393
  319PA    C11414212   6.596  -1.024   3.679  0.6055  0.2547 -0.1783
  319PA    H14R14213   6.638  -1.039   3.779  2.1857  2.8521 -0.3749
  319PA    H14S14214   6.653  -1.077   3.601 -0.8590  0.9778 -1.8176
  319PA    C11314215   6.606  -0.871   3.659  0.3452  0.4169 -0.5790
  319PA    H13R14216   6.557  -0.814   3.738  2.1212  0.2598  0.7081
  319PA    H13S14217   6.712  -0.848   3.674  0.9047 -2.0909 -0.1510
  319PA    C11214218   6.565  -0.815   3.516 -0.4355 -0.0484 -0.3457
  319PA    H12R14219   6.459  -0.836   3.506 -0.1684 -2.2556  0.8136
  319PA    H12S14220   6.598  -0.712   3.503  1.4087 -0.4002  1.0523
  319PA    C11114221   6.642  -0.900   3.410  0.4824 -0.3240  0.0735
  319PA    H11R14222   6.747  -0.909   3.436  0.4348 -0.4004  0.2451
  319PA    H11S14223   6.597  -0.999   3.402 -1.4341  0.5056  0.0455
  319PA    C11014224   6.634  -0.826   3.276 -0.1366 -0.1866  0.7303
  319PA    H10R14225   6.696  -0.737   3.283 -0.6280  0.2111  0.0667
  319PA    H10S14226   6.685  -0.888   3.203  0.1152  2.1216 -1.1478
  319PA     C1914227   6.498  -0.787   3.216 -0.7696  0.4926  0.0390
  319PA     H9R14228   6.433  -0.873   3.230 -0.6921  0.1977 -1.2995
  319PA     H9S14229   6.456  -0.707   3.278 -1.5707  0.1914 -0.1095
  319PA     C1814230   6.497  -0.744   3.068 -0.1858  0.2060 -0.4008
  319PA     H8R14231   6.505  -0.834   3.008  2.2583 -0.0112  0.1805
  319PA     H8S14232   6.398  -0.705   3.041 -0.4837  0.2862  0.7397
  319PA     C1714233   6.609  -0.641   3.036  0.9892 -0.1888 -0.4027
  319PA     H7R14234   6.594  -0.551   3.095  1.8582  1.2000 -2.2169
  319PA     H7S14235   6.707  -0.668   3.075  0.9087  0.8180  0.5205
  319PA     C1614236   6.624  -0.601   2.887  0.6388  0.2185  1.0281
  319PA     H6R14237   6.540  -0.538   2.857  1.0321  1.0715  1.6541
  319PA     H6S14238   6.709  -0.532   2.888  0.6732  0.2054  0.0819
  319PA     C1514239   6.640  -0.730   2.793 -0.0200 -0.0911 -0.3517
  319PA     H5R14240   6.548  -0.788   2.795 -0.1940  0.1968  0.3159
  319PA     H5S14241   6.651  -0.680   2.696  1.5488 -0.6944 -0.5146
  319PA     C1414242   6.762  -0.811   2.823 -0.3802  0.8203  0.3727
  319PA     H4R14243   6.850  -0.746   2.819 -0.0765  0.3910 -2.4666
  319PA     H4S14244   6.759  -0.859   2.921 -0.2835  1.2518  0.5884
  319PA     C1314245   6.780  -0.914   2.715 -0.1368  0.4767 -0.3335
  319PA     H3R14246   6.701  -0.987   2.734  0.6445 -0.0841  0.9582
  319PA     H3S14247   6.757  -0.864   2.621  0.2898 -0.1142 -0.7562
  319PA     C1214248   6.923  -0.986   2.724  0.2729  0.0113  0.1361
  319PA     H2R14249   7.008  -0.921   2.741  0.0237  0.2977  0.2956
  319PA     H2S14250   6.930  -1.051   2.811 -1.9820  0.7051  0.8914
  320PC     C1114251   6.951  -1.068   2.594  0.6759  0.4849 -0.2692
  320PC     O1214252   6.860  -1.094   2.511  0.0838 -0.0746 -0.0594
  320PC     O1114253   7.077  -1.115   2.586  0.0982  0.1967 -0.4637
  320PC      C114254   7.144  -1.174   2.471 -0.3420 -0.7343  0.1367
  320PC      HR14255   7.228  -1.242   2.486  0.3552  0.0220 -0.2817
  320PC      HS14256   7.068  -1.237   2.423 -1.9651 -0.0627  1.7131
  320PC      C214257   7.185  -1.062   2.375 -0.9626 -0.3405  0.2483
  320PC      HX14258   7.098  -0.999   2.358 -0.2038  0.2043 -1.8810
  320PC      C314259   7.234  -1.120   2.240 -0.3341 -0.3515 -0.1136
  320PC      HA14260   7.271  -1.041   2.175  1.0455 -0.0307  1.0144
  320PC      HB14261   7.318  -1.186   2.264 -0.4101 -0.3086  0.2668
  320PC     O3114262   7.126  -1.194   2.174  0.0437 -0.1653 -0.3198
  320PC     P3114263   7.003  -1.131   2.108 -0.0846 -0.5726 -0.0008
  320PC     O3214264   6.896  -1.159   2.216 -0.6101  0.2727 -0.6077
  320PC     C3114265   6.852  -1.287   2.260 -0.2110 -0.1343  0.3410
  320PC     H1A14266   6.925  -1.362   2.228 -1.1323 -0.6304 -0.6425
  320PC     H1B14267   6.837  -1.292   2.369  0.5260 -0.3222  0.4407
  320PC     C3214268   6.730  -1.326   2.182  0.4962 -0.3621  0.2382
  320PC     H2A14269   6.747  -1.301   2.077  1.8154 -1.4757  0.1627
  320PC     H2B14270   6.726  -1.435   2.187  0.2140 -0.4984 -2.0508
  320PC     N3114271   6.595  -1.255   2.194 -0.1441  0.0037  0.5622
  320PC     C3314272   6.501  -1.307   2.091  0.7721 -0.6528 -0.3179
  320PC     H3A14273   6.407  -1.254   2.108  0.4323 -0.2797 -2.8991
  320PC     H3B14274   6.532  -1.276   1.991  1.0531  0.8048  0.2070
  320PC     H3C14275   6.486  -1.415   2.101 -1.2520 -0.3015  1.0660
  320PC     C3414276   6.526  -1.274   2.325 -0.3879  0.0778 -0.0605
  320PC     H4A14277   6.462  -1.361   2.339  0.4835 -0.3745  1.3232
  320PC     H4B14278   6.601  -1.267   2.404  1.6661  0.7788 -1.9760
  320PC     H4C14279   6.461  -1.186   2.322  0.6969  0.8839 -1.3142
  320PC     C3514280   6.587  -1.111   2.172 -0.1882 -0.4464  0.0618
  320PC     H5A14281   6.656  -1.057   2.237  0.3581 -0.0471 -0.8286
  320PC     H5B14282   6.488  -1.077   2.202 -0.0845 -0.4761  0.4428
  320PC     H5C14283   6.611  -1.084   2.069 -2.5691  1.4744 -0.0842
  320PC     O3314284   7.026  -0.985   2.101  0.0731  0.6078 -0.0509
  320PC     O3414285   6.982  -1.205   1.985 -0.2840 -0.4990 -0.6901
  320PC     O2114286   7.297  -0.982   2.420  0.0191 -0.1640 -0.2830
  320PC     C2114287   7.278  -0.883   2.509 -0.5300 -0.2125 -0.4524
  320PC     O2214288   7.169  -0.841   2.538  0.7722 -0.1571 -0.6750
  321OL     C1214289   7.406  -0.828   2.564  0.1084 -0.9234 -0.2476
  321OL     H2R14290   7.450  -0.750   2.502 -3.7095  0.5255 -1.4268
  321OL     H2S14291   7.465  -0.919   2.558  0.5473 -0.7228  0.8948
  321OL     C1314292   7.379  -0.781   2.711 -0.4930  0.7456  0.1076
  321OL     H3R14293   7.325  -0.860   2.764  1.3010  0.1012  1.0461
  321OL     H3S14294   7.319  -0.690   2.716  1.1110  1.9526 -1.5542
  321OL     C1414295   7.519  -0.747   2.774  0.1535  0.5352 -0.2449
  321OL     H4R14296   7.556  -0.663   2.713  2.3155 -0.9126 -1.0454
  321OL     H4S14297   7.592  -0.825   2.756  0.3440  0.0048  2.4410
  321OL     C1514298   7.517  -0.703   2.921  0.2673 -0.0809  0.3634
  321OL     H5R14299   7.472  -0.781   2.983 -0.6087 -0.0845 -0.2449
  321OL     H5S14300   7.461  -0.611   2.936  0.3367  0.1634 -0.7941
  321OL     C1614301   7.659  -0.669   2.969  0.5830  0.5537  0.5763
  321OL     H6R14302   7.686  -0.583   2.907  0.1899 -0.5569 -1.1739
  321OL     H6S14303   7.723  -0.755   2.951  1.1933  0.6820  1.9980
  321OL     C1714304   7.652  -0.619   3.116 -0.1526 -0.6684  0.1066
  321OL     H7R14305   7.597  -0.527   3.127  1.5529  0.5351 -0.8350
  321OL     H7S14306   7.755  -0.597   3.146 -0.3222  0.2352  0.0421
  321OL     C1814307   7.617  -0.730   3.205 -0.0226  0.6365 -0.7753
  321OL     H8R14308   7.689  -0.811   3.193  0.2077  0.9386 -1.4251
  321OL     H8S14309   7.515  -0.767   3.188 -0.2923  0.1846  1.4745
  321OL     C1914310   7.633  -0.695   3.358 -0.1092  0.1020 -0.7636
  321OL     H9R14311   7.551  -0.655   3.416  0.2059  0.5958 -0.6419
  321OL    C11014312   7.746  -0.678   3.420  0.1288  1.2065 -0.6372
  321OL    H10R14313   7.748  -0.652   3.525 -0.3643  1.5226 -0.7022
  321OL    C11114314   7.886  -0.720   3.369  1.1531 -0.5720 -0.3639
  321OL    H11R14315   7.947  -0.632   3.347 -0.2904  0.4404 -0.4411
  321OL    H11S14316   7.868  -0.781   3.281  0.9409  0.6119 -1.1660
  321OL    C11214317   7.955  -0.797   3.477  0.0592  0.4304 -0.5125
  321OL    H12R14318   7.900  -0.891   3.492 -0.3999  0.4057 -2.1545
  321OL    H12S14319   7.948  -0.746   3.573  0.0979 -0.0510 -0.2481
  321OL    C11314320   8.108  -0.803   3.459  0.1109 -0.5424  0.2883
  321OL    H13R14321   8.143  -0.848   3.553  1.2694 -1.2943 -0.4829
  321OL    H13S14322   8.151  -0.703   3.464  2.6749 -1.5876  0.8796
  321OL    C11414323   8.149  -0.866   3.326 -1.2526 -0.9806 -0.0386
  321OL    H14R14324   8.257  -0.864   3.306 -1.5444 -1.2070 -1.8416
  321OL    H14S14325   8.115  -0.793   3.252  0.8426  0.2658  0.1248
  321OL    C11514326   8.100  -1.008   3.315 -0.3264 -0.2678  0.6746
  321OL    H15R14327   8.122  -1.047   3.215  0.9565 -0.9703  1.2135
  321OL    H15S14328   7.991  -1.013   3.328 -0.1252 -0.7023  2.3658
  321OL    C11614329   8.179  -1.104   3.411  0.5305  0.0369  0.5893
  321OL    H16R14330   8.144  -1.069   3.508 -0.0658  1.3177 -0.0733
  321OL    H16S14331   8.287  -1.090   3.402  0.3963  1.2986  0.8783
  321OL    C11714332   8.141  -1.253   3.396 -0.3090  0.3306  0.2314
  321OL    H17R14333   8.201  -1.309   3.469  0.1912  0.9115  0.2712
  321OL    H17S14334   8.184  -1.293   3.304  2.0151 -0.0223  1.3964
  321OL    C11814335   7.993  -1.291   3.420  0.1321  0.0980 -0.6182
  321OL    H18R14336   7.958  -1.254   3.516 -1.1082 -0.8816 -0.6640
  321OL    H18S14337   7.985  -1.400   3.414  1.2710 -0.1807  1.8098
  321OL    H18T14338   7.929  -1.251   3.341 -0.0312  1.0050 -0.0466
  322PA    C11614339   4.065   1.952   3.951 -0.3919  0.0452  0.1663
  322PA    H16R14340   4.147   1.949   4.023 -0.9270  1.5150  0.8837
  322PA    H16S14341   3.983   2.012   3.992 -2.2833 -2.2970  0.0264
  322PA    H16T14342   4.100   1.993   3.857 -0.8666 -0.6293 -0.3092
  322PA    C11514343   4.012   1.809   3.922 -0.1185 -0.5768  0.1622
  322PA    H15R14344   4.012   1.740   4.006 -2.2535 -1.5191 -0.5364
  322PA    H15S14345   3.909   1.821   3.888  0.0816  1.6191  0.1618
  322PA    C11414346   4.088   1.749   3.803 -0.2309  0.7369  0.5973
  322PA    H14R14347   4.076   1.821   3.723 -2.1991 -0.6148 -0.4128
  322PA    H14S14348   4.192   1.740   3.836  0.1333  0.9071 -0.4715
  322PA    C11314349   4.043   1.611   3.751  0.3664 -0.3356  0.6911
  322PA    H13R14350   4.082   1.529   3.812 -0.6674 -3.2557 -2.2419
  322PA    H13S14351   3.934   1.612   3.753  0.3661  1.5044  1.5499
  322PA    C11214352   4.083   1.585   3.603 -0.2784  0.5180  0.1341
  322PA    H12R14353   4.056   1.673   3.544  3.7066  1.8685  0.0555
  322PA    H12S14354   4.192   1.591   3.596 -0.3720  0.3376 -5.0330
  322PA    C11114355   4.045   1.437   3.556  0.0784  0.0214 -0.4984
  322PA    H11R14356   4.103   1.363   3.611  0.8997 -1.1779 -2.8568
  322PA    H11S14357   3.937   1.428   3.569  0.3191 -0.4608  1.5710
  322PA    C11014358   4.082   1.417   3.410 -0.9678  0.3715 -0.4264
  322PA    H10R14359   4.047   1.317   3.384 -0.1615 -0.3525  1.1391
  322PA    H10S14360   4.042   1.490   3.340  0.7901  0.3735 -1.4916
  322PA     C1914361   4.232   1.407   3.380  0.7338 -0.5825  0.0517
  322PA     H9R14362   4.278   1.505   3.377  2.7949 -1.4661 -3.7656
  322PA     H9S14363   4.275   1.350   3.462  0.1336 -1.9114 -0.5136
  322PA     C1814364   4.270   1.336   3.241  0.1338 -0.2722  0.0692
  322PA     H8R14365   4.218   1.242   3.222 -1.6701  0.8967 -1.0034
  322PA     H8S14366   4.244   1.405   3.161  2.8144 -0.5666 -1.1759
  322PA     C1714367   4.426   1.309   3.235 -0.0397  0.0992  0.1490
  322PA     H7R14368   4.470   1.407   3.216 -0.8029 -0.1013 -3.2353
  322PA     H7S14369   4.469   1.255   3.319  2.8855 -0.3058 -1.4553
  322PA     C1614370   4.451   1.226   3.108 -0.0642  0.4631 -0.3578
  322PA     H6R14371   4.555   1.196   3.120  0.1434  1.4534  0.5155
  322PA     H6S14372   4.388   1.137   3.101  0.5041  0.0452 -0.2116
  322PA     C1514373   4.424   1.306   2.981 -0.0571 -0.9240 -0.3047
  322PA     H5R14374   4.318   1.333   2.982  0.2699  1.1930 -3.7453
  322PA     H5S14375   4.476   1.401   2.979 -1.5033 -0.1105 -0.9986
  322PA     C1414376   4.452   1.220   2.857  0.1363 -0.2664 -0.3597
  322PA     H4R14377   4.552   1.179   2.868  0.5281  0.2103 -1.9366
  322PA     H4S14378   4.381   1.136   2.860 -1.5137  0.9812 -1.9654
  322PA     C1314379   4.450   1.293   2.721 -0.6226 -0.7237 -0.0981
  322PA     H3R14380   4.537   1.359   2.715 -1.8419  0.8919 -0.7500
  322PA     H3S14381   4.445   1.222   2.638  0.0915  1.6318 -2.2600
  322PA     C1214382   4.330   1.383   2.717  0.1335 -0.1948  0.3440
  322PA     H2R14383   4.236   1.336   2.750 -1.7218  3.9971  1.6866
  322PA     H2S14384   4.344   1.464   2.788 -0.3188  2.9895 -2.9068
  323PC     C1114385   4.321   1.460   2.584 -0.5542 -0.1777  0.2391
  323PC     O1214386   4.231   1.438   2.503 -0.2759  0.6274 -0.0719
  323PC     O1114387   4.400   1.567   2.563 -0.2255  0.0343 -0.2577
  323PC      C114388   4.384   1.633   2.436 -0.8525  0.5538 -0.7715
  323PC      HR14389   4.281   1.632   2.400 -1.3814 -3.5437  0.3264
  323PC      HS14390   4.416   1.735   2.461  0.5677 -0.3549  1.4675
  323PC      C214391   4.496   1.582   2.339 -1.0468  0.2768 -0.3375
  323PC      HX14392   4.512   1.661   2.265  0.7135  1.6792  1.4186
  323PC      C314393   4.456   1.444   2.291  0.1623 -0.6092 -0.3672
  323PC      HA14394   4.462   1.375   2.375 -1.8004 -0.1380  0.2254
  323PC      HB14395   4.348   1.453   2.275 -0.0566 -0.3594  1.1311
  323PC     O3114396   4.514   1.411   2.159  0.3372  0.1168 -0.1452
  323PC     P3114397   4.445   1.466   2.026  0.0929 -0.1508 -0.1158
  323PC     O3214398   4.357   1.352   1.963  0.0631 -0.1260  0.1089
  323PC     C3114399   4.416   1.251   1.878  0.6191 -0.0782  0.5307
  323PC     H1A14400   4.343   1.214   1.805  1.4761  1.9619 -1.4700
  323PC     H1B14401   4.495   1.301   1.820  0.7236  0.0116  0.7527
  323PC     C3214402   4.476   1.134   1.958 -0.3812  0.3056 -0.1406
  323PC     H2A14403   4.507   1.051   1.894  0.0696  0.3162  0.0628
  323PC     H2B14404   4.559   1.183   2.009 -0.1980 -0.7120  0.5531
  323PC     N3114405   4.395   1.064   2.061 -0.3168  0.1003  0.0495
  323PC     C3314406   4.354   1.156   2.179  0.1509 -0.2194 -0.1638
  323PC     H3A14407   4.289   1.237   2.145  0.5359  0.8069  1.4339
  323PC     H3B14408   4.311   1.100   2.262  1.9728  1.8700  2.3554
  323PC     H3C14409   4.447   1.198   2.219 -1.3111  2.6811  0.4642
  323PC     C3414410   4.273   1.016   2.006  0.4565  0.2303  0.0429
  323PC     H4A14411   4.230   0.949   2.079 -2.0671  0.8156 -0.7952
  323PC     H4B14412   4.203   1.098   1.985 -1.4725 -0.8101  2.0536
  323PC     H4C14413   4.284   0.945   1.924 -0.1892  0.0692  0.0947
  323PC     C3514414   4.476   0.945   2.100 -0.0932 -1.1422  0.0181
  323PC     H5A14415   4.413   0.878   2.160 -1.2611  0.4965  0.7094
  323PC     H5B14416   4.552   0.986   2.167 -1.3277 -1.7003  1.8557
  323PC     H5C14417   4.520   0.900   2.011  0.1174  0.4508 -0.7217
  323PC     O3314418   4.353   1.583   2.062  0.5846 -0.2131  0.2386
  323PC     O3414419   4.549   1.493   1.926  0.5585 -0.3803 -0.4335
  323PC     O2114420   4.625   1.556   2.404  0.4978 -0.1598 -0.2009
  323PC     C2114421   4.709   1.650   2.420  0.1461  0.0976 -1.0600
  323PC     O2214422   4.684   1.763   2.390 -0.3847  0.2235 -0.1350
  324OL     C1214423   4.833   1.602   2.500  0.2277 -1.0551 -0.5770
  324OL     H2R14424   4.922   1.642   2.452 -0.9604  1.2529 -0.9867
  324OL     H2S14425   4.828   1.493   2.499 -0.9104 -1.0876  1.4838
  324OL     C1314426   4.828   1.639   2.655  0.6982  0.3025  0.6783
  324OL     H3R14427   4.807   1.745   2.667  1.5665  1.0777 -3.2410
  324OL     H3S14428   4.931   1.625   2.689  0.9879  1.9209  0.5381
  324OL     C1414429   4.736   1.547   2.735 -0.1782  0.6392 -0.0158
  324OL     H4R14430   4.766   1.443   2.741 -2.3794 -0.0055  0.4539
  324OL     H4S14431   4.644   1.538   2.677  0.4266 -2.2738 -0.6457
  324OL     C1514432   4.708   1.588   2.879  0.0488 -0.6709 -0.0849
  324OL     H5R14433   4.802   1.624   2.920 -0.6169  2.5087 -1.0807
  324OL     H5S14434   4.673   1.506   2.942 -0.5960  0.5185  1.1719
  324OL     C1614435   4.603   1.697   2.901  0.3968 -0.0108 -0.2230
  324OL     H6R14436   4.501   1.659   2.900  0.3263  0.0250  1.7078
  324OL     H6S14437   4.603   1.766   2.816  0.3625  0.7241  0.3659
  324OL     C1714438   4.612   1.781   3.032 -1.2205  0.3573 -0.3694
  324OL     H7R14439   4.547   1.869   3.031 -0.7635  0.7304 -2.5444
  324OL     H7S14440   4.714   1.817   3.046 -1.8801  2.0172  0.3739
  324OL     C1814441   4.575   1.695   3.154 -0.2495  0.7487 -0.5056
  324OL     H8R14442   4.487   1.642   3.118 -0.0857  0.7735 -0.9462
  324OL     H8S14443   4.531   1.762   3.229  1.0276  1.3012 -0.2239
  324OL     C1914444   4.693   1.610   3.204  1.1457 -0.2159 -0.2733
  324OL     H9R14445   4.727   1.528   3.141 -1.1025  0.7017 -2.8624
  324OL    C11014446   4.760   1.629   3.313  0.3913 -0.1312  0.2353
  324OL    H10R14447   4.839   1.558   3.335  0.1862 -0.3304  0.3279
  324OL    C11114448   4.743   1.733   3.418 -0.3114  0.2601 -0.1573
  324OL    H11R14449   4.636   1.745   3.439 -0.1315 -1.7200  2.4275
  324OL    H11S14450   4.773   1.830   3.378  0.3335  0.0158 -0.2706
  324OL    C11214451   4.810   1.707   3.552  0.4518 -0.1734 -0.2681
  324OL    H12R14452   4.918   1.700   3.535  0.7291  3.2234 -0.5503
  324OL    H12S14453   4.782   1.605   3.581  1.0793 -0.9049 -2.0706
  324OL    C11314454   4.765   1.802   3.662 -0.1165 -0.2080  0.1700
  324OL    H13R14455   4.789   1.764   3.761  0.3168  1.0336  0.5612
  324OL    H13S14456   4.660   1.829   3.673  0.0397 -0.4483  2.9555
  324OL    C11414457   4.844   1.939   3.651 -0.2290 -0.0890 -0.3043
  324OL    H14R14458   4.828   1.994   3.558 -0.7734 -3.3814 -2.3489
  324OL    H14S14459   4.949   1.909   3.659  0.1709  1.2182 -0.4822
  324OL    C11514460   4.807   2.025   3.766  0.8822  0.9446 -0.3808
  324OL    H15R14461   4.854   2.124   3.767  0.0823  1.3408  1.5434
  324OL    H15S14462   4.826   1.970   3.858  1.4727 -0.2142 -1.1760
  324OL    C11614463   4.663   2.062   3.776 -0.2102 -0.2766 -0.4204
  324OL    H16R14464   4.595   1.978   3.793 -1.6797  1.2023  1.5315
  324OL    H16S14465   4.625   2.106   3.684 -2.9799  0.6918  1.0582
  324OL    C11714466   4.622   2.153   3.886  0.4793 -0.3532  0.5349
  324OL    H17R14467   4.649   2.254   3.854 -1.1668  0.0802  0.4270
  324OL    H17S14468   4.690   2.138   3.970  3.7637 -2.0483 -2.2076
  324OL    C11814469   4.472   2.153   3.926 -0.2337 -0.2870 -0.0187
  324OL    H18R14470   4.436   2.052   3.945  1.6054 -1.3180 -1.6918
  324OL    H18S14471   4.426   2.193   3.836  0.2039 -1.2994 -0.7048
  324OL    H18T14472   4.463   2.212   4.018 -0.6013  0.1941 -0.3576
  325PA    C11614473  -0.657   5.291   3.962  0.4383  0.6798  0.4805
  325PA    H16R14474  -0.638   5.309   4.069 -1.6240 -0.9407  1.1817
  325PA    H16S14475  -0.759   5.255   3.950  0.2211  0.7540  1.8778
  325PA    H16T14476  -0.646   5.380   3.900  2.4139 -0.9271 -1.6158
  325PA    C11514477  -0.555   5.186   3.917  0.0036  0.4281 -0.5589
  325PA    H15R14478  -0.452   5.220   3.924 -0.5574  2.1503 -0.1521
  325PA    H15S14479  -0.569   5.100   3.984 -0.4795 -0.5831 -1.9154
  325PA    C11414480  -0.567   5.144   3.769  0.5432 -0.1990  0.6328
  325PA    H14R14481  -0.594   5.236   3.716 -1.2410  0.2532  2.1990
  325PA    H14S14482  -0.472   5.107   3.731  0.3290  0.1066 -0.2248
  325PA    C11314483  -0.679   5.037   3.747  0.0857 -0.0626 -0.8314
  325PA    H13R14484  -0.658   4.946   3.804 -2.0835  0.7166  1.3501
  325PA    H13S14485  -0.772   5.078   3.785  0.1605  0.3054 -1.0397
  325PA    C11214486  -0.692   4.996   3.602  0.3294 -0.5292 -0.3384
  325PA    H12R14487  -0.595   4.964   3.563  0.7331 -0.7759  0.8185
  325PA    H12S14488  -0.765   4.916   3.589  0.6362 -1.2284  1.7937
  325PA    C11114489  -0.730   5.114   3.500  0.0198  0.1621 -0.6707
  325PA    H11R14490  -0.811   5.174   3.540 -0.3493  0.1737 -1.4102
  325PA    H11S14491  -0.645   5.182   3.492  1.2678 -1.2268  0.2315
  325PA    C11014492  -0.784   5.073   3.362 -0.0513 -0.7793  0.2908
  325PA    H10R14493  -0.873   5.011   3.373 -0.1734 -0.6078  0.2741
  325PA    H10S14494  -0.822   5.157   3.303 -0.1588 -1.4912 -0.6953
  325PA     C1914495  -0.675   5.001   3.284  0.3909 -0.7029 -0.2245
  325PA     H9R14496  -0.579   5.053   3.278  0.6716 -1.3125 -1.3047
  325PA     H9S14497  -0.642   4.909   3.334 -0.6370 -1.2527 -0.5283
  325PA     C1814498  -0.719   4.964   3.140 -0.6260 -0.1890  0.2665
  325PA     H8R14499  -0.634   4.914   3.093  2.7109  4.0620  1.1017
  325PA     H8S14500  -0.810   4.904   3.141 -0.3689 -0.6180 -0.8559
  325PA     C1714501  -0.749   5.089   3.055  0.7280  0.4800 -0.4931
  325PA     H7R14502  -0.777   5.060   2.953 -1.8299  1.0027  0.0014
  325PA     H7S14503  -0.831   5.144   3.101  0.7275 -0.5579  0.8309
  325PA     C1614504  -0.629   5.177   3.045  0.2445 -0.0282  0.4400
  325PA     H6R14505  -0.642   5.270   2.988  0.5465  0.8120  1.6964
  325PA     H6S14506  -0.594   5.215   3.141  1.5671 -0.3215  0.0945
  325PA     C1514507  -0.509   5.109   2.973  0.3352  0.4523  0.1316
  325PA     H5R14508  -0.431   5.186   2.972 -0.5342  1.3454 -0.4828
  325PA     H5S14509  -0.476   5.026   3.036 -1.4498  0.9030  1.7556
  325PA     C1414510  -0.535   5.061   2.823  0.3153 -0.2426 -0.0710
  325PA     H4R14511  -0.611   4.982   2.830  0.8731 -0.8097 -0.3567
  325PA     H4S14512  -0.567   5.150   2.768  3.6445  1.7573  0.9638
  325PA     C1314513  -0.407   5.023   2.744 -0.3854  0.0094  0.2321
  325PA     H3R14514  -0.330   5.101   2.752  2.0590 -2.2879  0.8803
  325PA     H3S14515  -0.352   4.939   2.788 -1.2528 -0.8710 -0.3177
  325PA     C1214516  -0.424   4.992   2.592  0.6194 -0.2041 -0.3345
  325PA     H2R14517  -0.485   4.901   2.587 -0.8019  0.5173  1.9229
  325PA     H2S14518  -0.478   5.075   2.547 -0.5226 -1.2398 -0.9559
  326PC     C1114519  -0.298   4.962   2.516 -0.3409 -0.1563 -0.4017
  326PC     O1214520  -0.181   4.969   2.555 -0.0717  0.1576  0.1019
  326PC     O1114521  -0.319   4.924   2.383 -0.2955 -0.4909  0.1629
  326PC      C114522  -0.209   4.916   2.294  0.1410 -0.5045 -0.5382
  326PC      HR14523  -0.244   4.966   2.204  0.6787  1.7520  0.4336
  326PC      HS14524  -0.128   4.979   2.333 -2.1899  1.4005  1.6145
  326PC      C214525  -0.173   4.771   2.270 -0.6370 -0.0229  0.3699
  326PC      HX14526  -0.093   4.760   2.196  0.1145 -1.0829  1.2870
  326PC      C314527  -0.282   4.688   2.204 -0.1738 -0.2502 -0.5489
  326PC      HA14528  -0.232   4.605   2.155  0.8273  0.2052 -0.3306
  326PC      HB14529  -0.352   4.652   2.279  0.1645  0.3789  0.0933
  326PC     O3114530  -0.347   4.771   2.103  0.1684 -0.5634 -1.1561
  326PC     P3114531  -0.308   4.751   1.948  0.3381 -0.2121 -0.2849
  326PC     O3214532  -0.408   4.638   1.901 -0.3496  0.3909 -0.0606
  326PC     C3114533  -0.546   4.666   1.868  0.0472 -0.5990 -0.5993
  326PC     H1A14534  -0.612   4.632   1.949 -2.5617 -0.1897 -2.4492
  326PC     H1B14535  -0.552   4.775   1.860  2.4365 -0.4454 -0.9787
  326PC     C3214536  -0.579   4.597   1.734 -0.6557 -0.3381 -0.1441
  326PC     H2A14537  -0.612   4.494   1.749  0.9854 -1.0174 -0.9579
  326PC     H2B14538  -0.671   4.643   1.698 -0.0064  0.5184 -0.7529
  326PC     N3114539  -0.495   4.609   1.613  0.2974 -0.6794  0.5574
  326PC     C3314540  -0.376   4.521   1.615 -0.5733  0.7329  0.2177
  326PC     H3A14541  -0.317   4.541   1.705  0.9522  0.2568 -0.6293
  326PC     H3B14542  -0.408   4.417   1.621  1.8192 -0.1057 -0.3518
  326PC     H3C14543  -0.317   4.541   1.526 -0.0134 -0.0106  0.4066
  326PC     C3414544  -0.586   4.577   1.500  0.8273  0.1669  0.1578
  326PC     H4A14545  -0.521   4.569   1.412  2.0570 -2.6840  1.2020
  326PC     H4B14546  -0.626   4.478   1.519  0.8978  0.1070  0.0020
  326PC     H4C14547  -0.661   4.656   1.489  0.2721 -0.1754  1.3645
  326PC     C3514548  -0.452   4.750   1.600 -0.3036 -0.4075 -0.1634
  326PC     H5A14549  -0.544   4.807   1.582 -0.8033 -0.8706  0.7889
  326PC     H5B14550  -0.383   4.746   1.516 -1.0397 -0.6730 -0.7658
  326PC     H5C14551  -0.401   4.772   1.694 -2.4429  0.5999  0.8542
  326PC     O3314552  -0.342   4.882   1.887  0.2269  0.3203  0.1496
  326PC     O3414553  -0.172   4.697   1.928 -0.2945  0.1241 -0.4842
  326PC     O2114554  -0.153   4.700   2.398 -0.1675  0.1037  1.0024
  326PC     C2114555  -0.027   4.691   2.439  0.3218 -1.0875  0.2124
  326PC     O2214556   0.072   4.720   2.378 -0.8924  0.0690 -0.2089
  327OL     C1214557  -0.017   4.629   2.582  0.0798  0.1698  0.1608
  327OL     H2R14558  -0.035   4.523   2.564 -0.7547  0.6321 -2.0621
  327OL     H2S14559  -0.098   4.664   2.647 -0.7113 -1.3620  0.0590
  327OL     C1314560   0.113   4.646   2.663 -0.2890  0.4209 -1.0611
  327OL     H3R14561   0.120   4.749   2.700  2.9097 -0.2002  0.3803
  327OL     H3S14562   0.202   4.619   2.607 -0.3068  0.9105 -1.3354
  327OL     C1414563   0.094   4.556   2.791 -0.1253  0.7183 -0.1894
  327OL     H4R14564   0.099   4.450   2.766  0.5807  0.5312  0.6732
  327OL     H4S14565  -0.002   4.579   2.837  0.2221 -0.7071  1.3279
  327OL     C1514566   0.222   4.593   2.873 -0.3941 -0.0783  0.5474
  327OL     H5R14567   0.204   4.690   2.920 -0.7155 -1.0734  2.5906
  327OL     H5S14568   0.308   4.593   2.806 -0.4604 -2.9670  0.3266
  327OL     C1614569   0.237   4.489   2.987  0.4978 -0.8649 -0.1299
  327OL     H6R14570   0.338   4.510   3.024  0.6413  0.4122 -1.1414
  327OL     H6S14571   0.236   4.392   2.937  1.4936 -0.6724 -0.5567
  327OL     C1714572   0.131   4.502   3.104  0.8216 -0.8659 -0.3286
  327OL     H7R14573   0.044   4.466   3.048  1.3972 -0.9661 -1.1857
  327OL     H7S14574   0.111   4.606   3.133  0.8638 -0.8530 -0.3460
  327OL     C1814575   0.167   4.420   3.229 -0.5757  0.8312 -0.7714
  327OL     H8R14576   0.263   4.462   3.258 -0.3461  1.1138 -1.9032
  327OL     H8S14577   0.192   4.318   3.199  2.8139  1.1698  0.5294
  327OL     C1914578   0.065   4.423   3.346 -0.0386 -0.2611  0.3293
  327OL     H9R14579  -0.036   4.390   3.320 -0.1482  0.3004  0.0188
  327OL    C11014580   0.085   4.459   3.475  0.2023  0.4469  0.3554
  327OL    H10R14581   0.001   4.464   3.543  1.4023  0.2870  1.8910
  327OL    C11114582   0.209   4.518   3.534  0.5512 -0.0957 -1.2012
  327OL    H11R14583   0.191   4.620   3.566 -0.0405 -0.2501 -1.0299
  327OL    H11S14584   0.283   4.530   3.454 -0.0262  0.1962 -1.7002
  327OL    C11214585   0.261   4.417   3.639 -0.1437 -0.1910 -0.0020
  327OL    H12R14586   0.180   4.420   3.712  0.6766  0.3955  0.9055
  327OL    H12S14587   0.342   4.473   3.685 -0.7994  1.9736 -1.3038
  327OL    C11314588   0.306   4.280   3.598  0.3354 -0.0378 -0.2540
  327OL    H13R14589   0.377   4.292   3.516 -0.0441  3.6640 -0.2050
  327OL    H13S14590   0.213   4.237   3.561 -0.2093  0.1811  0.8269
  327OL    C11414591   0.363   4.189   3.710  0.1377  0.0946  0.4401
  327OL    H14R14592   0.398   4.099   3.659  0.2437 -0.7851  2.0080
  327OL    H14S14593   0.293   4.154   3.786 -0.0392  1.3113  0.8553
  327OL    C11514594   0.492   4.245   3.766  0.5857  0.0995 -0.3651
  327OL    H15R14595   0.482   4.340   3.819  0.4491  0.0378 -0.2796
  327OL    H15S14596   0.561   4.272   3.686  0.1431  1.0639 -0.4384
  327OL    C11614597   0.553   4.156   3.878  0.2228 -0.0372  0.2394
  327OL    H16R14598   0.550   4.049   3.854  1.4334  0.1554 -0.8652
  327OL    H16S14599   0.510   4.169   3.977  0.4853 -1.6635  0.6020
  327OL    C11714600   0.706   4.197   3.887  0.3246 -0.4510  0.2304
  327OL    H17R14601   0.704   4.299   3.926  1.6969 -0.4262  0.2564
  327OL    H17S14602   0.749   4.203   3.787  1.3728  3.1974  0.7427
  327OL    C11814603   0.786   4.113   3.987 -0.7417  0.4598 -0.5158
  327OL    H18R14604   0.788   4.006   3.963 -1.2712  0.5225 -0.8450
  327OL    H18S14605   0.752   4.132   4.089  0.1048  2.7363 -0.6024
  327OL    H18T14606   0.890   4.147   3.981 -0.8520  0.6827 -1.2363
  328PA    C11614607   3.880   5.116   3.689  0.0800 -0.0638 -0.2394
  328PA    H16R14608   3.918   5.025   3.641  1.0344  0.8041 -1.1745
  328PA    H16S14609   3.772   5.105   3.683 -0.0404  0.3567  0.9290
  328PA    H16T14610   3.909   5.103   3.794  0.3055 -0.1862 -0.3155
  328PA    C11514611   3.942   5.239   3.623  0.3432 -0.2231  0.1858
  328PA    H15R14612   3.944   5.323   3.692  0.5151 -1.1379  1.3293
  328PA    H15S14613   4.049   5.243   3.602 -0.0040  1.5690 -1.6204
  328PA    C11414614   3.859   5.297   3.501 -0.4176  0.1605 -0.0115
  328PA    H14R14615   3.766   5.343   3.536  0.7514  1.0600  2.0935
  328PA    H14S14616   3.918   5.373   3.448 -0.9666 -0.3837 -1.4266
  328PA    C11314617   3.832   5.188   3.389 -0.4235  0.1815 -0.3201
  328PA    H13R14618   3.928   5.143   3.362 -0.4752  0.9276 -1.8478
  328PA    H13S14619   3.761   5.113   3.426 -1.8973  1.0357 -1.3144
  328PA    C11214620   3.783   5.249   3.260 -0.0454  0.1025 -0.5088
  328PA    H12R14621   3.681   5.284   3.276 -0.3548 -0.8609 -0.3309
  328PA    H12S14622   3.852   5.330   3.235 -0.1799  0.5455  0.5087
  328PA    C11114623   3.783   5.135   3.153 -0.0882  0.1153  0.4794
  328PA    H11R14624   3.885   5.097   3.142 -0.4128 -1.3221  1.9495
  328PA    H11S14625   3.716   5.056   3.187  0.5719 -0.2353  0.9972
  328PA    C11014626   3.753   5.191   3.012 -0.5013  0.0594  0.6718
  328PA    H10R14627   3.660   5.247   3.026 -1.1861 -1.1340  0.9806
  328PA    H10S14628   3.826   5.264   2.975 -1.5277  1.5487  1.4844
  328PA     C1914629   3.718   5.080   2.912 -0.3259  0.6474 -0.0857
  328PA     H9R14630   3.635   5.018   2.947  1.1639 -0.9249  0.8423
  328PA     H9S14631   3.696   5.122   2.814  1.8424 -0.2448 -1.0406
  328PA     C1814632   3.834   4.983   2.878 -0.1247 -0.2348 -0.5988
  328PA     H8R14633   3.924   5.044   2.867 -0.7400  0.7652 -0.3280
  328PA     H8S14634   3.851   4.917   2.964  0.4981  2.2926  1.3493
  328PA     C1714635   3.798   4.902   2.756  0.5223  0.3325 -0.4502
  328PA     H7R14636   3.712   4.844   2.791  1.2432 -0.1223  0.6265
  328PA     H7S14637   3.766   4.973   2.680 -0.1999 -0.6218 -1.0515
  328PA     C1614638   3.916   4.813   2.711  0.2561 -0.2595  0.6485
  328PA     H6R14639   3.959   4.756   2.794 -1.0258  0.3974  1.7994
  328PA     H6S14640   3.874   4.741   2.640 -0.3872 -0.1373  0.9010
  328PA     C1514641   4.042   4.887   2.645 -0.5362  0.4894 -0.3324
  328PA     H5R14642   4.070   4.958   2.723 -1.4457  0.3072  0.1763
  328PA     H5S14643   4.127   4.826   2.615 -0.6700  0.0089  0.2479
  328PA     C1414644   3.997   4.975   2.530  0.0238  0.1155 -0.0549
  328PA     H4R14645   3.892   5.003   2.528  0.4782  2.2635  2.0103
  328PA     H4S14646   4.045   5.071   2.551 -1.3982  0.6149  1.0943
  328PA     C1314647   4.048   4.940   2.382 -0.0855  0.2377 -0.5675
  328PA     H3R14648   4.060   5.039   2.338  2.0652  1.3866  2.2750
  328PA     H3S14649   4.147   4.894   2.375 -0.5322 -0.8112 -0.2945
  328PA     C1214650   3.940   4.859   2.297  0.3156 -0.1762 -0.3611
  328PA     H2R14651   3.949   4.757   2.333  1.3246 -0.5430 -1.5876
  328PA     H2S14652   3.839   4.895   2.316  0.3822  0.4662 -1.1318
  329PC     C1114653   3.966   4.853   2.146 -0.2101 -1.2830 -0.0788
  329PC     O1214654   4.064   4.897   2.087  0.3559  0.3226  0.2789
  329PC     O1114655   3.851   4.808   2.086 -0.1401  0.8207  0.4848
  329PC      C114656   3.846   4.790   1.934 -0.2583  0.1563 -0.0206
  329PC      HR14657   3.740   4.789   1.909  0.2876 -0.5855 -2.5800
  329PC      HS14658   3.889   4.879   1.887 -0.6249  1.2989  1.7215
  329PC      C214659   3.915   4.659   1.890  0.1402  0.0099 -0.0151
  329PC      HX14660   4.020   4.661   1.917  0.1914  0.3552 -0.2233
  329PC      C314661   3.898   4.657   1.740  0.2793 -0.4017 -0.1784
  329PC      HA14662   3.917   4.558   1.698 -0.9740  0.5406 -3.2392
  329PC      HB14663   3.795   4.685   1.718 -0.1926  1.2888  3.4646
  329PC     O3114664   3.991   4.759   1.684 -0.5919 -0.1866 -0.5886
  329PC     P3114665   4.138   4.711   1.642 -0.0590  0.5964  0.0734
  329PC     O3214666   4.113   4.639   1.503 -0.6672 -0.1223 -0.0806
  329PC     C3114667   4.084   4.497   1.480 -0.0743  0.1766 -0.4010
  329PC     H1A14668   4.118   4.432   1.561 -1.7280 -1.4118 -0.9208
  329PC     H1B14669   3.976   4.479   1.476  0.1145 -0.8205 -1.9368
  329PC     C3214670   4.165   4.452   1.358  0.7372 -0.2704  0.2301
  329PC     H2A14671   4.135   4.351   1.333  0.0917 -0.4043  1.4678
  329PC     H2B14672   4.140   4.518   1.275 -0.2675 -2.2738 -1.1463
  329PC     N3114673   4.313   4.444   1.359  0.6950  0.1204 -0.0683
  329PC     C3314674   4.370   4.574   1.386  0.6259 -0.0625 -0.4951
  329PC     H3A14675   4.319   4.647   1.324  3.4647  3.4709  0.9640
  329PC     H3B14676   4.347   4.606   1.488  2.7954  0.4437 -0.1057
  329PC     H3C14677   4.475   4.574   1.358  0.9089 -1.8142  0.4211
  329PC     C3414678   4.368   4.366   1.473 -0.0456  0.0285  0.0375
  329PC     H4A14679   4.471   4.345   1.445 -0.5774 -1.3760 -0.9920
  329PC     H4B14680   4.356   4.421   1.567 -2.0697  0.6660 -0.5359
  329PC     H4C14681   4.323   4.267   1.466  2.1978 -0.9404 -1.9577
  329PC     C3514682   4.368   4.383   1.238 -0.7645 -0.2197 -0.0843
  329PC     H5A14683   4.476   4.383   1.247 -0.6934  0.1593 -0.9072
  329PC     H5B14684   4.339   4.449   1.157 -0.8321  0.0126  0.1301
  329PC     H5C14685   4.322   4.284   1.226 -0.2851 -0.4243 -0.2871
  329PC     O3314686   4.225   4.829   1.616 -0.7260 -0.4075 -0.2438
  329PC     O3414687   4.189   4.609   1.733  0.3668  0.2613  0.5583
  329PC     O2114688   3.850   4.543   1.947  0.2122 -0.5164 -0.3803
  329PC     C2114689   3.899   4.496   2.062 -0.4195  0.4375  0.1492
  329PC     O2214690   4.003   4.533   2.111 -0.5977 -0.7834 -0.1900
  330OL     C1214691   3.810   4.394   2.129  0.9310  0.3102 -0.2044
  330OL     H2R14692   3.752   4.339   2.054  1.2352  0.9884 -0.9535
  330OL     H2S14693   3.739   4.458   2.183 -1.3214 -2.1505  0.0084
  330OL     C1314694   3.879   4.290   2.222  0.4239  0.1631 -0.4813
  330OL     H3R14695   3.989   4.292   2.225  0.4570  0.9215 -1.6053
  330OL     H3S14696   3.864   4.187   2.190 -2.6238  0.3973 -0.0218
  330OL     C1414697   3.823   4.297   2.363  0.4826 -0.4488 -0.3442
  330OL     H4R14698   3.867   4.219   2.426  0.1071 -0.1114  0.3532
  330OL     H4S14699   3.718   4.266   2.364  0.0300  0.9910 -0.6867
  330OL     C1514700   3.847   4.429   2.436 -0.0638  0.0745 -0.1487
  330OL     H5R14701   3.792   4.509   2.386 -0.0961  0.2346  0.1343
  330OL     H5S14702   3.949   4.466   2.444 -0.4562  0.7744  2.6380
  330OL     C1614703   3.789   4.431   2.582 -0.7592  0.0908 -0.0661
  330OL     H6R14704   3.816   4.524   2.634  0.9152  0.4680 -1.4838
  330OL     H6S14705   3.837   4.354   2.643 -1.0494  1.0624  1.4634
  330OL     C1714706   3.638   4.407   2.591  0.8722  0.9565 -0.1561
  330OL     H7R14707   3.631   4.300   2.573  2.0771  0.9592 -0.7713
  330OL     H7S14708   3.572   4.464   2.525 -2.2958  0.4586  2.3084
  330OL     C1814709   3.584   4.434   2.732  0.1348  0.3651 -0.4164
  330OL     H8R14710   3.607   4.540   2.746 -1.8566  1.0630 -1.9745
  330OL     H8S14711   3.642   4.373   2.802 -0.2780 -1.2584 -1.4265
  330OL     C1914712   3.432   4.411   2.745 -0.5305  0.5174 -0.5791
  330OL     H9R14713   3.369   4.452   2.665 -0.5326  2.9181  0.5513
  330OL    C11014714   3.366   4.382   2.858 -0.9119  0.0298  0.7893
  330OL    H10R14715   3.259   4.401   2.854 -0.5694  2.3416  1.0911
  330OL    C11114716   3.429   4.337   2.982 -0.3837  0.5471 -0.4536
  330OL    H11R14717   3.533   4.369   2.985 -1.0499  3.0570 -1.0718
  330OL    H11S14718   3.411   4.231   2.994  1.0688  0.4645  1.3283
  330OL    C11214719   3.374   4.404   3.109 -0.0778  0.1920  0.2641
  330OL    H12R14720   3.391   4.512   3.100  0.6583  0.1157  0.6536
  330OL    H12S14721   3.435   4.359   3.188  1.4546 -1.3009 -1.6662
  330OL    C11314722   3.222   4.379   3.124  0.1834 -0.2152 -0.7281
  330OL    H13R14723   3.190   4.277   3.103  0.7848 -0.5071 -0.2852
  330OL    H13S14724   3.161   4.450   3.068  1.5421  0.9729 -0.7698
  330OL    C11414725   3.166   4.381   3.270 -0.4449  0.2608 -0.2436
  330OL    H14R14726   3.204   4.302   3.336 -3.6699 -3.9789 -2.9602
  330OL    H14S14727   3.058   4.364   3.261 -0.7156  1.3675  0.7197
  330OL    C11514728   3.173   4.523   3.328  0.0377  0.2451  0.2968
  330OL    H15R14729   3.100   4.576   3.266 -0.9048  0.0969  1.2548
  330OL    H15S14730   3.275   4.558   3.314  0.6572 -1.6727 -0.2878
  330OL    C11614731   3.148   4.532   3.481 -0.0916 -0.1218 -0.8438
  330OL    H16R14732   3.047   4.492   3.498  0.5083 -2.4522 -2.1948
  330OL    H16S14733   3.158   4.637   3.507 -0.1087 -0.1873 -0.5717
  330OL    C11714734   3.251   4.445   3.565  0.4218 -0.0509 -0.1226
  330OL    H17R14735   3.220   4.340   3.562 -0.2234  0.0429  2.0722
  330OL    H17S14736   3.244   4.465   3.672 -1.0696 -0.3758 -0.1452
  330OL    C11814737   3.404   4.460   3.521  0.8973  0.2321 -0.1542
  330OL    H18R14738   3.418   4.436   3.415  1.6153  1.4992 -0.3734
  330OL    H18S14739   3.464   4.384   3.572 -1.4625  0.0580  2.5972
  330OL    H18T14740   3.430   4.564   3.540 -1.1671  0.9870 -1.1870
  331PA    C11614741   2.013   4.542   3.534 -0.4166  0.4754 -0.0940
  331PA    H16R14742   1.907   4.537   3.508 -0.8606  1.1110  1.4781
  331PA    H16S14743   2.036   4.649   3.526 -0.1124  0.4411  0.2857
  331PA    H16T14744   2.029   4.508   3.636 -2.1069  2.1381  0.7711
  331PA    C11514745   2.099   4.468   3.431 -0.3711  0.3512  0.1473
  331PA    H15R14746   2.205   4.490   3.449 -0.4648  1.8341 -0.9484
  331PA    H15S14747   2.082   4.360   3.420 -0.0968  0.2465  0.7240
  331PA    C11414748   2.041   4.525   3.296  0.5542 -0.9810 -0.8306
  331PA    H14R14749   1.938   4.495   3.279 -0.0489  0.4884  0.0047
  331PA    H14S14750   2.051   4.633   3.307  0.9347 -1.1684  1.0183
  331PA    C11314751   2.117   4.476   3.170  0.1035  0.6477 -0.5721
  331PA    H13R14752   2.224   4.495   3.177  0.4005 -1.1256  0.1646
  331PA    H13S14753   2.102   4.371   3.145 -0.2460  0.8206 -1.1077
  331PA    C11214754   2.051   4.567   3.056  0.5979  0.1903  0.4359
  331PA    H12R14755   1.945   4.544   3.056 -0.1206  3.0654  3.0052
  331PA    H12S14756   2.067   4.670   3.087 -1.1223  1.2633 -1.9456
  331PA    C11114757   2.122   4.540   2.919 -0.2630 -0.4041  0.0591
  331PA    H11R14758   2.127   4.628   2.854  2.9570  0.5274  1.3272
  331PA    H11S14759   2.230   4.526   2.932 -0.4490 -2.7899 -0.6163
  331PA    C11014760   2.065   4.411   2.856 -0.3106 -1.2306 -0.1085
  331PA    H10R14761   2.024   4.348   2.936 -1.9270 -0.1322 -0.0150
  331PA    H10S14762   1.978   4.445   2.799  0.1968 -1.8003 -1.2585
  331PA     C1914763   2.173   4.339   2.774 -0.2837 -0.1008  0.0498
  331PA     H9R14764   2.228   4.405   2.707 -0.2382 -0.0716  0.1168
  331PA     H9S14765   2.253   4.307   2.840  1.9666  1.1790 -1.8713
  331PA     C1814766   2.119   4.225   2.691 -0.5321  0.1213 -0.1477
  331PA     H8R14767   2.205   4.163   2.664 -0.4771  0.1680 -0.0803
  331PA     H8S14768   2.053   4.165   2.754 -1.1695  0.1832 -0.7344
  331PA     C1714769   2.038   4.278   2.567  0.1386 -0.4756  0.0532
  331PA     H7R14770   1.959   4.339   2.611  1.6484 -0.4842  3.0371
  331PA     H7S14771   2.092   4.343   2.498 -2.5019  0.7081 -1.0069
  331PA     C1614772   1.971   4.168   2.489  0.2698  0.3518  0.1065
  331PA     H6R14773   2.052   4.104   2.454  2.0578  0.9199  2.9268
  331PA     H6S14774   1.916   4.100   2.554  1.8708 -0.3172  0.7927
  331PA     C1514775   1.886   4.210   2.368 -0.3642  0.3420 -0.7738
  331PA     H5R14776   1.800   4.257   2.417  0.0396  1.1105 -0.7833
  331PA     H5S14777   1.941   4.289   2.316 -1.3735  1.8387  0.3164
  331PA     C1414778   1.840   4.104   2.272  0.1330  0.2702 -0.0353
  331PA     H4R14779   1.779   4.149   2.193  1.4858 -0.1098 -1.3465
  331PA     H4S14780   1.921   4.067   2.210 -1.2204  1.2255 -2.5145
  331PA     C1314781   1.772   3.977   2.334 -0.8552  0.4763 -0.7153
  331PA     H3R14782   1.834   3.945   2.418  0.0804 -0.7339 -1.8307
  331PA     H3S14783   1.686   4.007   2.394 -0.3146  0.9101 -0.1430
  331PA     C1214784   1.734   3.861   2.236  0.4131  0.8640 -0.1511
  331PA     H2R14785   1.814   3.820   2.174  1.0659  2.3286 -0.3204
  331PA     H2S14786   1.711   3.769   2.291  1.7009  0.0972 -0.8416
  332PC     C1114787   1.619   3.888   2.135 -0.0257  0.8682  0.4859
  332PC     O1214788   1.646   3.894   2.017 -0.8381  0.0400 -0.5392
  332PC     O1114789   1.491   3.906   2.170  0.0567 -0.1671  0.0341
  332PC      C114790   1.393   3.891   2.070 -0.4098 -0.1906  0.1927
  332PC      HR14791   1.395   3.972   1.997  1.0616 -1.4818 -1.3015
  332PC      HS14792   1.413   3.801   2.011  1.8094 -0.5650  1.4090
  332PC      C214793   1.253   3.883   2.131  0.0513 -0.2499 -0.4964
  332PC      HX14794   1.258   3.813   2.215  1.3408  2.0531  1.4558
  332PC      C314795   1.134   3.852   2.034 -0.0500 -0.0999  0.4171
  332PC      HA14796   1.119   3.744   2.030 -0.5944 -0.0537  1.0685
  332PC      HB14797   1.047   3.901   2.078 -1.0054  0.0319 -1.5253
  332PC     O3114798   1.152   3.917   1.907 -0.1305  0.1259  0.3413
  332PC     P3114799   1.034   3.984   1.829  0.1829 -0.3115  0.1534
  332PC     O3214800   1.016   4.120   1.900 -0.3939 -0.5603 -0.3155
  332PC     C3114801   1.124   4.214   1.917  0.3970 -0.0972 -0.6537
  332PC     H1A14802   1.196   4.172   1.989 -1.9433 -0.0276  1.9125
  332PC     H1B14803   1.171   4.234   1.821  1.7606  0.2567  0.0589
  332PC     C3214804   1.066   4.331   2.000 -0.3250 -0.0918 -0.2329
  332PC     H2A14805   0.989   4.383   1.943 -3.1229 -1.2794  2.2555
  332PC     H2B14806   1.017   4.319   2.096 -1.5470  1.1576 -0.6821
  332PC     N3114807   1.164   4.433   2.041 -0.2649 -0.1143 -0.3848
  332PC     C3314808   1.231   4.495   1.928 -0.5357 -0.2278  0.2148
  332PC     H3A14809   1.309   4.427   1.892 -1.2473 -0.1836 -1.5019
  332PC     H3B14810   1.167   4.509   1.841  1.0986  0.5954 -0.9034
  332PC     H3C14811   1.282   4.585   1.962  1.9620 -1.5608  0.2833
  332PC     C3414812   1.085   4.533   2.113  0.0174 -0.3317 -0.4382
  332PC     H4A14813   1.000   4.564   2.053 -0.5662 -0.3298  0.3690
  332PC     H4B14814   1.048   4.471   2.195 -0.8938  0.7105 -0.0382
  332PC     H4C14815   1.141   4.622   2.143 -0.8547  0.6377 -1.6039
  332PC     C3514816   1.268   4.388   2.143  0.7385 -0.0545 -0.0084
  332PC     H5A14817   1.339   4.471   2.140  1.4058 -0.6011  0.5509
  332PC     H5B14818   1.313   4.297   2.103  1.4025  0.2094  0.1301
  332PC     H5C14819   1.215   4.381   2.238 -1.2568  3.3038 -0.6587
  332PC     O3314820   1.084   4.018   1.695  0.1250 -0.4259  0.4553
  332PC     O3414821   0.911   3.909   1.846  0.1193  0.5418  0.4476
  332PC     O2114822   1.216   4.006   2.201 -0.0524 -0.0619  0.4765
  332PC     C2114823   1.136   4.006   2.308 -0.0333  0.4741 -0.4496
  332PC     O2214824   1.098   3.902   2.355 -0.3271  0.3263  0.2496
  333OL     C1214825   1.075   4.139   2.351 -0.1283  0.5234 -0.0873
  333OL     H2R14826   1.013   4.173   2.268 -1.7066  0.2215  0.9408
  333OL     H2S14827   1.154   4.213   2.365  0.8254 -0.4749 -0.0217
  333OL     C1314828   0.982   4.132   2.474  0.3902  0.0015  0.2918
  333OL     H3R14829   1.041   4.095   2.559  0.1700 -0.5624  0.1998
  333OL     H3S14830   0.901   4.064   2.450 -2.3834  2.7445  1.3007
  333OL     C1414831   0.942   4.278   2.521  0.2938 -0.0631  0.4043
  333OL     H4R14832   0.912   4.274   2.626 -1.0893  0.0505  0.0365
  333OL     H4S14833   0.851   4.293   2.463  0.4921 -1.1998 -0.2474
  333OL     C1514834   1.047   4.394   2.512 -0.6756  0.6596  0.7650
  333OL     H5R14835   1.092   4.411   2.414  2.0977 -3.2669  1.0970
  333OL     H5S14836   1.132   4.362   2.573  0.4138 -0.3644 -1.1989
  333OL     C1614837   0.993   4.528   2.565  0.3743 -0.1581  0.1036
  333OL     H6R14838   1.065   4.610   2.559  1.4300 -0.9535  1.2681
  333OL     H6S14839   0.982   4.518   2.674  0.9175 -2.3234 -0.0024
  333OL     C1714840   0.861   4.569   2.511 -0.0351 -0.1627  0.2022
  333OL     H7R14841   0.789   4.493   2.545  0.9521 -1.5210 -0.6715
  333OL     H7S14842   0.850   4.567   2.403  1.4310  0.9765  0.0091
  333OL     C1814843   0.798   4.692   2.573  0.4786 -0.2489 -0.2564
  333OL     H8R14844   0.864   4.775   2.549  2.7298 -1.6175  0.8600
  333OL     H8S14845   0.794   4.680   2.681 -2.0743 -3.5459 -0.5446
  333OL     C1914846   0.654   4.712   2.534  0.1479 -0.1625 -0.0879
  333OL     H9R14847   0.626   4.687   2.432 -1.6783  1.7492 -0.1461
  333OL    C11014848   0.558   4.740   2.627  0.0149  0.8125 -0.1879
  333OL    H10R14849   0.452   4.740   2.603  0.0688 -1.6483 -0.6836
  333OL    C11114850   0.584   4.794   2.769 -0.6615  0.7184 -0.1679
  333OL    H11R14851   0.683   4.839   2.777  0.3973 -1.4428 -0.1538
  333OL    H11S14852   0.570   4.713   2.842 -0.0621  1.8724  1.2660
  333OL    C11214853   0.491   4.907   2.803  0.0229  0.1849  0.2324
  333OL    H12R14854   0.389   4.869   2.798  0.1389 -0.7685  3.0433
  333OL    H12S14855   0.508   4.990   2.734 -3.2491  0.8698  0.0904
  333OL    C11314856   0.509   4.959   2.945  0.1102 -0.3850  0.1381
  333OL    H13R14857   0.441   5.043   2.958  0.8687  0.4394 -1.0243
  333OL    H13S14858   0.612   4.993   2.960  0.5392 -1.1853 -0.8699
  333OL    C11414859   0.481   4.861   3.058  0.4243 -0.5436 -0.3249
  333OL    H14R14860   0.530   4.763   3.060 -1.0371 -1.3204 -0.5117
  333OL    H14S14861   0.373   4.841   3.056  0.1922  0.6272 -2.5747
  333OL    C11514862   0.500   4.942   3.187 -0.0245 -0.1238  0.3761
  333OL    H15R14863   0.456   5.040   3.172 -2.4414 -0.8833  1.9325
  333OL    H15S14864   0.606   4.959   3.208 -0.5416  0.9359  2.3564
  333OL    C11614865   0.442   4.863   3.314 -0.2282 -0.3375  0.5037
  333OL    H16R14866   0.480   4.912   3.404 -0.2628 -0.7966  0.7773
  333OL    H16S14867   0.485   4.762   3.308  0.3393 -0.0672 -0.1472
  333OL    C11714868   0.295   4.850   3.305 -0.1065 -0.0710 -0.2146
  333OL    H17R14869   0.269   4.752   3.263 -0.5626 -0.0034 -0.0994
  333OL    H17S14870   0.253   4.936   3.253 -0.9771  0.4242  1.2503
  333OL    C11814871   0.234   4.860   3.452  0.2873  0.3907 -0.2253
  333OL    H18R14872   0.217   4.964   3.484  0.7990  0.6402 -0.7537
  333OL    H18S14873   0.293   4.803   3.524 -1.1826 -0.3039  0.4763
  333OL    H18T14874   0.133   4.819   3.442  0.6558 -0.1245 -2.1391
  334PA    C11614875   4.368  -0.649   3.989 -0.1459  0.1828 -0.1400
  334PA    H16R14876   4.347  -0.558   3.933  1.0897  0.7417  0.2606
  334PA    H16S14877   4.434  -0.628   4.074  0.6748 -1.3249 -0.3736
  334PA    H16T14878   4.279  -0.692   4.034 -0.7654  1.6009  0.0569
  334PA    C11514879   4.437  -0.751   3.897  0.5346  0.1379 -0.4444
  334PA    H15R14880   4.432  -0.847   3.947 -1.2238  1.7949  2.8990
  334PA    H15S14881   4.376  -0.754   3.806 -0.8165 -1.1354  0.4588
  334PA    C11414882   4.587  -0.719   3.860  0.2377 -0.5534 -0.4205
  334PA    H14R14883   4.596  -0.613   3.836  0.8705 -0.2674  1.0112
  334PA    H14S14884   4.640  -0.744   3.951  0.5028  2.2116  0.2582
  334PA    C11314885   4.632  -0.821   3.756  0.1571  0.6129  0.3148
  334PA    H13R14886   4.740  -0.825   3.768  0.1464  1.4452  0.7384
  334PA    H13S14887   4.586  -0.919   3.769 -1.1449  1.2002  0.3633
  334PA    C11214888   4.595  -0.771   3.607 -0.4740  0.4573 -0.0863
  334PA    H12R14889   4.487  -0.782   3.596 -0.6496  1.9457 -0.1205
  334PA    H12S14890   4.620  -0.665   3.595 -2.3463  1.1002  1.1822
  334PA    C11114891   4.661  -0.857   3.500 -0.6483  0.1486 -0.2239
  334PA    H11R14892   4.767  -0.836   3.515 -0.4080 -0.6886 -0.7152
  334PA    H11S14893   4.634  -0.960   3.525  3.5834 -0.3112  3.7539
  334PA    C11014894   4.619  -0.826   3.355  0.4909 -0.3822  0.4560
  334PA    H10R14895   4.517  -0.861   3.339  0.2766  0.1308  0.6784
  334PA    H10S14896   4.613  -0.717   3.348 -4.0641 -0.3491  1.7122
  334PA     C1914897   4.723  -0.873   3.253  0.1540  0.0464  0.4486
  334PA     H9R14898   4.826  -0.873   3.289  0.7468  2.0220 -1.0655
  334PA     H9S14899   4.697  -0.977   3.231 -1.9276  0.6110  0.0191
  334PA     C1814900   4.728  -0.785   3.129  0.1197 -0.2579 -0.2816
  334PA     H8R14901   4.772  -0.687   3.151 -0.2535  0.6705 -3.1570
  334PA     H8S14902   4.803  -0.826   3.060 -0.3405  0.6243 -1.3309
  334PA     C1714903   4.596  -0.753   3.064 -0.1137 -0.2001  0.2691
  334PA     H7R14904   4.541  -0.841   3.032  0.0805  0.5842 -2.4158
  334PA     H7S14905   4.541  -0.691   3.135  0.5863 -0.3081  0.9231
  334PA     C1614906   4.628  -0.673   2.941  0.1815 -0.8182  0.6320
  334PA     H6R14907   4.677  -0.581   2.974 -2.4881  1.2008 -0.6316
  334PA     H6S14908   4.702  -0.724   2.879  0.3665  0.0506  0.1201
  334PA     C1514909   4.509  -0.625   2.858  0.4387  0.6470 -0.2455
  334PA     H5R14910   4.451  -0.715   2.835  0.4145  0.7718 -0.6751
  334PA     H5S14911   4.441  -0.560   2.913 -1.1481 -1.5795  0.5600
  334PA     C1414912   4.537  -0.551   2.727  0.5826  0.3743 -0.1105
  334PA     H4R14913   4.440  -0.522   2.686  0.3175 -1.8969 -1.2745
  334PA     H4S14914   4.590  -0.460   2.754  1.7079 -0.0972 -0.6783
  334PA     C1314915   4.610  -0.635   2.615  0.2881 -0.3350  0.0571
  334PA     H3R14916   4.705  -0.669   2.655  0.4808 -0.8722 -0.8449
  334PA     H3S14917   4.550  -0.722   2.586 -0.8217  0.5809 -0.5041
  334PA     C1214918   4.627  -0.545   2.481  0.4933  0.2591  0.4355
  334PA     H2R14919   4.532  -0.505   2.446  0.8551 -0.6962 -1.8355
  334PA     H2S14920   4.693  -0.463   2.508 -0.3405  1.3891 -0.8505
  335PC     C1114921   4.681  -0.625   2.368  0.3147  0.4254  0.5505
  335PC     O1214922   4.707  -0.740   2.378 -0.6905 -0.6744  0.2125
  335PC     O1114923   4.685  -0.555   2.250 -0.6280  0.4374 -0.4947
  335PC      C114924   4.730  -0.614   2.130 -0.6704  0.3011  0.1201
  335PC      HR14925   4.782  -0.532   2.079 -1.2462  0.5719 -0.0474
  335PC      HS14926   4.799  -0.698   2.137 -2.2982 -1.1173 -0.0752
  335PC      C214927   4.609  -0.653   2.053  0.1683  0.8748  0.2179
  335PC      HX14928   4.623  -0.712   1.962  0.2700  1.4165 -0.1217
  335PC      C314929   4.539  -0.531   1.992 -0.1253 -0.5773 -0.0523
  335PC      HA14930   4.452  -0.559   1.931  1.7377 -0.1347 -3.0988
  335PC      HB14931   4.509  -0.459   2.069  1.2311  0.2630 -0.2880
  335PC     O3114932   4.618  -0.467   1.892 -0.1657 -0.0906 -0.1781
  335PC     P3114933   4.663  -0.541   1.749  0.0520 -0.5111 -0.1755
  335PC     O3214934   4.805  -0.594   1.787 -0.2460 -0.2477  0.1077
  335PC     C3114935   4.923  -0.510   1.762 -0.1269 -0.2301 -0.1033
  335PC     H1A14936   4.886  -0.408   1.758 -0.4692 -0.3918 -1.6591
  335PC     H1B14937   4.985  -0.521   1.852  1.2861 -1.9704 -1.2207
  335PC     C3214938   4.980  -0.551   1.623 -0.4967  0.2059  0.5268
  335PC     H2A14939   4.983  -0.659   1.608  0.1926  0.2947 -0.0657
  335PC     H2B14940   4.911  -0.513   1.547 -1.3566 -0.0143  1.1795
  335PC     N3114941   5.112  -0.490   1.577  0.0587  0.6297  1.2267
  335PC     C3314942   5.218  -0.510   1.679 -0.7954 -0.1646 -0.7516
  335PC     H3A14943   5.181  -0.466   1.772  0.4983 -0.9937  0.1946
  335PC     H3B14944   5.241  -0.616   1.684 -0.8580 -0.1368  0.3638
  335PC     H3C14945   5.309  -0.456   1.654 -0.2358  0.1488  1.6614
  335PC     C3414946   5.165  -0.534   1.442 -0.1634 -0.0639  0.4124
  335PC     H4A14947   5.081  -0.527   1.373  0.2213  0.9222  0.0234
  335PC     H4B14948   5.236  -0.457   1.410 -1.0414  0.2070 -0.9734
  335PC     H4C14949   5.205  -0.635   1.436  0.0163  0.0777 -1.0702
  335PC     C3514950   5.104  -0.346   1.562  0.5389 -0.5430  0.3510
  335PC     H5A14951   5.201  -0.314   1.525  0.2317  0.1122  0.0970
  335PC     H5B14952   5.084  -0.301   1.660 -0.8890  0.8091 -0.5107
  335PC     H5C14953   5.024  -0.310   1.497 -1.0870  0.0064  2.5038
  335PC     O3314954   4.580  -0.660   1.732 -0.0369  0.0055 -0.0447
  335PC     O3414955   4.677  -0.436   1.648  0.0671  0.1368  0.6025
  335PC     O2114956   4.521  -0.731   2.141  0.2926  0.2927  0.3807
  335PC     C2114957   4.544  -0.867   2.148 -0.1382  0.7347  0.0369
  335PC     O2214958   4.609  -0.920   2.061 -0.5209 -0.1837  1.0809
  336OL     C1214959   4.463  -0.936   2.254  0.1570  0.3070 -0.2740
  336OL     H2R14960   4.365  -0.966   2.215 -1.0712  2.0431  1.3024
  336OL     H2S14961   4.454  -0.869   2.339  2.3078 -0.5659  0.7198
  336OL     C1314962   4.543  -1.059   2.303 -0.0202 -0.1075  0.2930
  336OL     H3R14963   4.639  -1.023   2.340  0.0577 -0.0449  0.0363
  336OL     H3S14964   4.564  -1.130   2.222 -2.6029  0.0842 -0.6754
  336OL     C1414965   4.457  -1.149   2.399 -0.6620 -0.8265 -0.0429
  336OL     H4R14966   4.513  -1.241   2.418 -1.3431 -0.7850  2.4940
  336OL     H4S14967   4.359  -1.159   2.352 -1.0136  0.0445  0.4761
  336OL     C1514968   4.442  -1.076   2.540  0.4050  0.2152  0.1543
  336OL     H5R14969   4.403  -1.150   2.610 -2.7689 -0.3277 -1.9739
  336OL     H5S14970   4.370  -0.995   2.522 -0.5356 -0.6481 -0.0541
  336OL     C1614971   4.563  -1.005   2.605  0.2093  0.0497  0.3040
  336OL     H6R14972   4.536  -0.952   2.697 -0.0076  0.9441 -0.2613
  336OL     H6S14973   4.595  -0.929   2.534 -1.6824  1.1532  0.5553
  336OL     C1714974   4.676  -1.100   2.632  0.6244 -0.2427 -0.8111
  336OL     H7R14975   4.721  -1.138   2.540 -0.4649  2.2618 -2.4949
  336OL     H7S14976   4.631  -1.192   2.670 -0.4343  0.7532  0.4289
  336OL     C1814977   4.792  -1.060   2.730 -0.9842  0.0618  0.1337
  336OL     H8R14978   4.747  -1.019   2.821 -0.2695 -1.1573  1.0784
  336OL     H8S14979   4.851  -0.985   2.677 -0.2252 -0.1081  0.7282
  336OL     C1914980   4.879  -1.183   2.765 -0.1121  0.8668 -0.2666
  336OL     H9R14981   4.971  -1.196   2.709 -0.0890  1.8979 -0.4938
  336OL    C11014982   4.856  -1.266   2.865 -0.4336  0.6545  0.8712
  336OL    H10R14983   4.923  -1.351   2.877 -1.3474 -0.6807 -2.5024
  336OL    C11114984   4.744  -1.254   2.965  0.0133  0.5554 -0.2262
  336OL    H11R14985   4.685  -1.343   2.940  1.1277 -0.5934  1.0933
  336OL    H11S14986   4.689  -1.161   2.953  1.9549  1.6545 -0.8827
  336OL    C11214987   4.798  -1.265   3.107 -0.1117 -0.3165 -0.1113
  336OL    H12R14988   4.859  -1.177   3.130 -0.7413 -0.4396  2.2367
  336OL    H12S14989   4.859  -1.354   3.122  1.9278  1.0061 -0.0875
  336OL    C11314990   4.686  -1.271   3.215 -0.5117 -0.4423  0.0822
  336OL    H13R14991   4.607  -1.339   3.183 -0.7464 -0.4317  0.6175
  336OL    H13S14992   4.634  -1.175   3.207 -1.1293 -0.4256  3.1204
  336OL    C11414993   4.724  -1.290   3.363  0.8265  0.4105 -0.4053
  336OL    H14R14994   4.765  -1.198   3.406  1.2367 -0.6156  1.5252
  336OL    H14S14995   4.805  -1.361   3.378 -0.2603 -0.5179  1.4710
  336OL    C11514996   4.592  -1.332   3.438 -0.0958 -0.0516  0.1757
  336OL    H15R14997   4.624  -1.361   3.539 -0.6018 -1.1460  0.0395
  336OL    H15S14998   4.552  -1.425   3.399  0.4260 -1.3206  2.4553
  336OL    C11614999   4.477  -1.232   3.453  0.0283 -0.7290 -0.0321
  336OL    H16R15000   4.444  -1.188   3.358  3.0302  2.1508  0.0644
  336OL    H16S15001   4.527  -1.147   3.499 -2.4311 -0.0985  1.6699
  336OL    C11715002   4.351  -1.268   3.544  0.3342  0.0838  0.2909
  336OL    H17R15003   4.397  -1.269   3.643  0.9590 -1.1892 -0.0044
  336OL    H17S15004   4.315  -1.368   3.517  0.0535  0.2572  0.0114
  336OL    C11815005   4.241  -1.158   3.531  0.4931 -0.0586  0.2633
  336OL    H18R15006   4.165  -1.180   3.606  4.0020 -3.1905  3.3371
  336OL    H18S15007   4.208  -1.153   3.427  0.3259  1.5146  0.3680
  336OL    H18T15008   4.280  -1.060   3.555  1.4542 -0.7036  1.4047
  337PA    C11615009  -0.375   0.735   3.665  0.4039  0.3383 -0.0558
  337PA    H16R15010  -0.338   0.638   3.632 -0.9726  0.4428 -2.1328
  337PA    H16S15011  -0.473   0.716   3.710  0.4512 -3.1119 -1.0950
  337PA    H16T15012  -0.307   0.778   3.738 -0.7361 -1.3622  2.1053
  337PA    C11515013  -0.380   0.826   3.539 -0.4236 -0.3358  0.2698
  337PA    H15R15014  -0.458   0.792   3.470 -0.2859 -0.1001 -0.0018
  337PA    H15S15015  -0.410   0.926   3.570  0.7898 -0.3547  1.5920
  337PA    C11415016  -0.245   0.838   3.469 -0.4460 -0.7347  0.1026
  337PA    H14R15017  -0.257   0.907   3.385 -2.7241 -1.9357 -0.6573
  337PA    H14S15018  -0.174   0.887   3.536 -0.4252 -0.1501 -0.3358
  337PA    C11315019  -0.190   0.707   3.422  0.1620 -0.2009 -0.0366
  337PA    H13R15020  -0.176   0.638   3.506 -0.1140 -1.1174 -0.7336
  337PA    H13S15021  -0.262   0.652   3.362  0.9570 -0.8329 -0.4299
  337PA    C11215022  -0.060   0.728   3.338 -0.6208 -0.1444 -0.2347
  337PA    H12R15023  -0.076   0.809   3.267  0.5340  1.2105  1.0115
  337PA    H12S15024   0.014   0.768   3.408 -0.6118  0.5830 -0.6531
  337PA    C11115025  -0.014   0.602   3.260  0.5691 -0.0187 -0.0973
  337PA    H11R15026  -0.001   0.523   3.334 -0.4753 -0.3314 -0.2351
  337PA    H11S15027  -0.088   0.561   3.191  0.7147 -0.3657 -0.0459
  337PA    C11015028   0.117   0.626   3.182  0.2654 -0.3662  0.0167
  337PA    H10R15029   0.191   0.673   3.247 -2.3364  0.2760  2.7749
  337PA    H10S15030   0.162   0.532   3.151 -2.7755 -1.5453 -1.1754
  337PA     C1915031   0.093   0.710   3.056 -0.0230 -0.2201  0.6549
  337PA     H9R15032   0.003   0.677   3.004  1.6302 -1.7294 -1.4322
  337PA     H9S15033   0.078   0.818   3.069  0.2364  0.1871 -1.9147
  337PA     C1815034   0.203   0.679   2.954  0.3447 -0.1127 -0.0830
  337PA     H8R15035   0.298   0.723   2.984  0.1984  1.5829 -1.8428
  337PA     H8S15036   0.206   0.570   2.951 -2.5885 -0.2942  0.2497
  337PA     C1715037   0.178   0.736   2.813  0.2014  0.0299 -0.6471
  337PA     H7R15038   0.073   0.717   2.789  0.0548 -1.4083  0.9024
  337PA     H7S15039   0.178   0.845   2.823 -0.5325  0.0302 -0.5269
  337PA     C1615040   0.272   0.693   2.701 -0.1053 -0.0271 -0.0346
  337PA     H6R15041   0.373   0.722   2.732  0.0732 -0.1866 -0.4530
  337PA     H6S15042   0.271   0.586   2.680 -1.3545 -0.0206 -0.0939
  337PA     C1515043   0.250   0.762   2.566  0.9646 -0.4469 -0.6254
  337PA     H5R15044   0.150   0.737   2.531  0.4469  1.3123 -0.4750
  337PA     H5S15045   0.259   0.870   2.575 -2.4034 -0.0630 -0.5745
  337PA     C1415046   0.335   0.704   2.453  0.0740  0.2307 -0.3228
  337PA     H4R15047   0.436   0.721   2.492 -0.8640  0.7665  2.0444
  337PA     H4S15048   0.319   0.598   2.436  0.5023  0.1927 -0.5053
  337PA     C1315049   0.325   0.771   2.317  0.1060 -0.3358  0.2449
  337PA     H3R15050   0.227   0.759   2.270 -0.5527  1.1871  1.1685
  337PA     H3S15051   0.323   0.880   2.321  0.0139 -0.3431  0.4194
  337PA     C1215052   0.439   0.730   2.211 -0.4536  0.2695  0.4775
  337PA     H2R15053   0.532   0.779   2.240 -1.7368  2.2520  1.4768
  337PA     H2S15054   0.448   0.621   2.209 -1.4511  0.1648 -1.6449
  338PC     C1115055   0.405   0.782   2.070  0.3915 -0.0540  0.1149
  338PC     O1215056   0.388   0.713   1.977  0.2163  0.6119  0.1636
  338PC     O1115057   0.420   0.914   2.055  0.0110 -0.1340 -0.1037
  338PC      C115058   0.415   0.976   1.923  0.0944  0.2149 -0.0418
  338PC      HR15059   0.488   1.057   1.923 -0.0085  0.3362  1.5191
  338PC      HS15060   0.451   0.899   1.854 -2.4770  0.2164 -1.4999
  338PC      C215061   0.276   1.035   1.890 -0.5236 -0.2221  0.2626
  338PC      HX15062   0.203   0.959   1.859  0.4917 -0.6312 -1.2435
  338PC      C315063   0.269   1.133   1.774 -0.5957 -0.1688  0.0515
  338PC      HA15064   0.166   1.159   1.748 -0.3776  5.5124  3.2076
  338PC      HB15065   0.325   1.226   1.790 -0.1234  0.2184 -3.2442
  338PC     O3115066   0.324   1.064   1.651 -0.3697 -0.4107 -1.0287
  338PC     P3115067   0.236   0.961   1.559 -0.2399  0.0683 -0.2030
  338PC     O3215068   0.272   0.816   1.619 -0.0754 -0.2808 -0.1405
  338PC     C3115069   0.383   0.742   1.566 -0.0399 -0.1773 -0.5838
  338PC     H1A15070   0.386   0.745   1.457  1.0892  0.4775 -0.5600
  338PC     H1B15071   0.476   0.786   1.604  0.4158 -0.9828 -0.7391
  338PC     C3215072   0.392   0.593   1.605 -0.6856 -0.1790  0.0061
  338PC     H2A15073   0.488   0.557   1.568 -0.5196 -1.3423  1.4737
  338PC     H2B15074   0.393   0.588   1.714 -1.4349  0.8811  0.0758
  338PC     N3115075   0.291   0.495   1.559  0.1457 -0.3126 -0.5335
  338PC     C3315076   0.236   0.532   1.421 -0.2843  0.2876 -0.3823
  338PC     H3A15077   0.158   0.608   1.419  1.2402  1.9137 -0.0817
  338PC     H3B15078   0.321   0.560   1.358  0.2378  0.7581  0.5264
  338PC     H3C15079   0.196   0.437   1.385 -1.5486 -0.1474  1.9483
  338PC     C3415080   0.363   0.361   1.542 -0.1949  0.0008 -0.5160
  338PC     H4A15081   0.292   0.280   1.525 -1.1944  0.2638  1.9650
  338PC     H4B15082   0.429   0.378   1.457 -1.2054  2.3024 -0.8960
  338PC     H4C15083   0.419   0.334   1.632 -1.4196 -2.9939 -0.5347
  338PC     C3515084   0.187   0.487   1.665 -0.2989 -0.3814  0.2761
  338PC     H5A15085   0.241   0.464   1.757 -0.6760 -1.8117  0.1518
  338PC     H5B15086   0.116   0.410   1.634  1.0126 -2.0936  1.3512
  338PC     H5C15087   0.142   0.587   1.667 -1.4464 -0.8719  1.9529
  338PC     O3315088   0.092   0.979   1.596 -0.0751  0.1456  0.2198
  338PC     O3415089   0.278   0.976   1.422  0.2791 -0.7815  0.6942
  338PC     O2115090   0.231   1.095   2.010 -0.0295 -0.5694 -0.0301
  338PC     C2115091   0.150   1.028   2.093  0.3171  0.0399  0.4902
  338PC     O2215092   0.136   0.904   2.082  0.0826 -0.2779 -0.6521
  339OL     C1215093   0.089   1.111   2.199 -0.6464 -0.5704 -0.3711
  339OL     H2R15094   0.018   1.181   2.156 -0.0548  1.8797  2.3548
  339OL     H2S15095   0.169   1.168   2.248  0.3490 -0.3866 -2.1306
  339OL     C1315096   0.038   1.028   2.314  0.4465 -0.0919  0.0649
  339OL     H3R15097   0.026   1.103   2.392  0.0001 -0.3220  0.2243
  339OL     H3S15098   0.114   0.958   2.350 -1.3086 -1.5938  1.0690
  339OL     C1415099  -0.087   0.937   2.289 -0.2932 -0.1821 -0.3604
  339OL     H4R15100  -0.060   0.862   2.213  0.6190 -0.0003 -0.2322
  339OL     H4S15101  -0.169   0.993   2.245  0.8113 -0.8747 -3.5760
  339OL     C1515102  -0.126   0.864   2.417  0.3964 -0.2661  0.3649
  339OL     H5R15103  -0.063   0.777   2.434  0.2520 -0.2558  0.9642
  339OL     H5S15104  -0.218   0.807   2.401  0.9962 -1.2412  0.2926
  339OL     C1615105  -0.135   0.945   2.545  0.3229  0.0124 -0.6380
  339OL     H6R15106  -0.039   0.982   2.581 -0.7137  2.0543  0.2414
  339OL     H6S15107  -0.174   0.879   2.622 -1.8987 -0.3572 -1.9732
  339OL     C1715108  -0.250   1.044   2.525 -0.3129 -0.3639  0.2860
  339OL     H7R15109  -0.345   0.994   2.505  0.0525 -2.4116  3.0313
  339OL     H7S15110  -0.233   1.111   2.441  1.7699  1.4751  2.0659
  339OL     C1815111  -0.278   1.138   2.648 -0.5597  0.1874 -0.2320
  339OL     H8R15112  -0.192   1.165   2.710 -1.1419  1.1753  0.1678
  339OL     H8S15113  -0.344   1.075   2.707  0.8127 -2.3095 -1.1739
  339OL     C1915114  -0.346   1.267   2.612 -0.2876  0.4150 -0.4849
  339OL     H9R15115  -0.450   1.265   2.581 -0.5591  1.1650  0.3574
  339OL    C11015116  -0.301   1.390   2.642 -0.0962 -0.1962  0.2036
  339OL    H10R15117  -0.369   1.473   2.626  1.3320  1.1768  1.0496
  339OL    C11115118  -0.156   1.426   2.678  0.1729  0.2009 -0.4398
  339OL    H11R15119  -0.129   1.512   2.617  0.0820 -0.5186 -1.5174
  339OL    H11S15120  -0.079   1.351   2.659  1.7734  1.7367 -0.2901
  339OL    C11215121  -0.144   1.472   2.827 -0.1821 -0.0108 -0.1410
  339OL    H12R15122  -0.209   1.553   2.861  1.2408  1.0021  0.2874
  339OL    H12S15123  -0.045   1.515   2.847 -0.8457  0.9707  1.2650
  339OL    C11315124  -0.152   1.352   2.927 -0.2333 -0.7512  0.1527
  339OL    H13R15125  -0.061   1.292   2.921 -0.7455 -1.5276  0.0351
  339OL    H13S15126  -0.234   1.282   2.908  1.3560 -3.0543  1.2713
  339OL    C11415127  -0.147   1.401   3.079 -0.2577 -0.9429  0.0448
  339OL    H14R15128  -0.242   1.441   3.116  0.5134  1.2126 -0.1420
  339OL    H14S15129  -0.085   1.488   3.101 -1.4817  0.0076 -0.1523
  339OL    C11515130  -0.111   1.282   3.166  0.7096  0.7416 -0.2293
  339OL    H15R15131  -0.036   1.227   3.108  0.6871 -0.3218  0.7331
  339OL    H15S15132  -0.191   1.208   3.163 -0.2637  1.7546  0.2258
  339OL    C11615133  -0.041   1.296   3.300 -0.5128 -0.9508 -0.5895
  339OL    H16R15134  -0.115   1.339   3.369 -0.4011 -3.4455  1.2444
  339OL    H16S15135   0.039   1.370   3.291 -0.7820 -0.6763 -0.7630
  339OL    C11715136  -0.011   1.166   3.370 -0.0773  0.8362  0.1123
  339OL    H17R15137  -0.102   1.113   3.397  0.7351 -0.5575  0.1834
  339OL    H17S15138   0.046   1.184   3.462  2.1940  0.0418 -1.0662
  339OL    C11815139   0.077   1.071   3.288  0.4650  0.1122 -0.0779
  339OL    H18R15140   0.128   1.005   3.357  2.7774  0.9867 -0.8739
  339OL    H18S15141   0.157   1.130   3.243  1.0882 -2.0004 -1.9040
  339OL    H18T15142   0.024   1.006   3.218  1.0277 -1.7241  1.1322
  340PA    C11615143   4.283   4.537   3.702  0.3808 -0.1526 -0.0395
  340PA    H16R15144   4.265   4.620   3.770  1.4470 -1.7287  2.3005
  340PA    H16S15145   4.385   4.505   3.724 -0.4448 -2.0718  1.2930
  340PA    H16T15146   4.211   4.460   3.730  0.5299 -0.6801 -1.0794
  340PA    C11515147   4.266   4.578   3.553 -0.0322 -0.3537 -0.4053
  340PA    H15R15148   4.330   4.662   3.527  0.2364  0.1570  1.7071
  340PA    H15S15149   4.282   4.491   3.489 -3.1208  0.4759 -2.5755
  340PA    C11415150   4.127   4.610   3.520  0.3352 -0.0657  0.3417
  340PA    H14R15151   4.055   4.531   3.540 -0.0797  0.4489  0.9161
  340PA    H14S15152   4.097   4.702   3.571 -4.3942 -0.4661 -1.1992
  340PA    C11315153   4.109   4.646   3.364  0.3302  0.3200 -0.7581
  340PA    H13R15154   4.134   4.554   3.310  0.5149  0.4234 -0.8466
  340PA    H13S15155   4.007   4.671   3.337  0.6948 -0.2827 -2.8356
  340PA    C11215156   4.191   4.765   3.321  0.2812  0.0896  0.2645
  340PA    H12R15157   4.155   4.853   3.375  0.1080  0.8317 -1.0219
  340PA    H12S15158   4.295   4.742   3.344  0.2994 -1.9347 -1.5035
  340PA    C11115159   4.172   4.793   3.177  0.1695 -0.4457 -0.0039
  340PA    H11R15160   4.206   4.703   3.125 -1.9272 -1.7108  0.6805
  340PA    H11S15161   4.068   4.813   3.149 -0.0643  0.8280  1.6471
  340PA    C11015162   4.257   4.918   3.129 -0.0114  0.2556  0.4653
  340PA    H10R15163   4.220   5.004   3.186 -1.7254  0.6543 -1.1289
  340PA    H10S15164   4.364   4.898   3.131  0.0617  0.5287 -0.5118
  340PA     C1915165   4.216   4.942   2.981 -0.0379 -0.7828  0.1894
  340PA     H9R15166   4.203   4.857   2.914 -2.0375  1.5377 -2.6465
  340PA     H9S15167   4.116   4.986   2.977 -0.6049 -1.9936  0.5646
  340PA     C1815168   4.298   5.046   2.899 -0.0963  0.1600 -0.3676
  340PA     H8R15169   4.393   4.991   2.893 -0.1794 -0.0587  0.2162
  340PA     H8S15170   4.263   5.056   2.796  1.1752  0.9060 -0.7514
  340PA     C1715171   4.328   5.175   2.970  0.1022 -0.0671 -0.2681
  340PA     H7R15172   4.381   5.153   3.063 -1.3506 -0.4482  0.5136
  340PA     H7S15173   4.399   5.227   2.906 -0.1348 -0.4391 -0.8399
  340PA     C1615174   4.204   5.264   3.002 -0.0458  0.1216  0.2703
  340PA     H6R15175   4.140   5.214   3.074 -0.6458  0.8640  0.2640
  340PA     H6S15176   4.247   5.355   3.045 -2.8394  0.8867  1.6677
  340PA     C1515177   4.115   5.292   2.870 -0.7407 -0.0952 -0.1231
  340PA     H5R15178   4.078   5.197   2.831  2.0955 -1.0021 -0.7767
  340PA     H5S15179   4.031   5.353   2.903 -0.1859  0.8747 -0.4635
  340PA     C1415180   4.213   5.352   2.769  0.0016  0.3464 -0.4180
  340PA     H4R15181   4.236   5.449   2.813  0.9187 -0.7878  1.7399
  340PA     H4S15182   4.310   5.304   2.759  1.7063  3.8311 -2.7533
  340PA     C1315183   4.152   5.392   2.634 -0.3082 -0.3451  0.6385
  340PA     H3R15184   4.123   5.306   2.574 -0.1698 -0.1798  0.3370
  340PA     H3S15185   4.065   5.455   2.654 -0.7443 -1.5818  3.0465
  340PA     C1215186   4.250   5.487   2.568  0.3734 -0.0034 -0.7313
  340PA     H2R15187   4.253   5.579   2.625  2.7180 -0.9531  0.7937
  340PA     H2S15188   4.349   5.442   2.555  0.7713  0.5751  0.2237
  341PC     C1115189   4.213   5.537   2.430 -1.0364 -0.0266  0.1131
  341PC     O1215190   4.158   5.466   2.346  0.2332  0.2227 -0.2852
  341PC     O1115191   4.272   5.658   2.405  1.2101  0.1234 -0.3823
  341PC      C115192   4.287   5.706   2.261  0.2374 -0.5016  0.6725
  341PC      HR15193   4.363   5.784   2.266 -0.6553  0.4560 -0.2257
  341PC      HS15194   4.317   5.629   2.190 -4.2866  0.2529 -2.4131
  341PC      C215195   4.150   5.768   2.206 -0.5386  0.0227  0.5889
  341PC      HX15196   4.075   5.691   2.185 -0.3539  0.0034 -0.0195
  341PC      C315197   4.166   5.848   2.073 -0.1489  0.7097 -0.1159
  341PC      HA15198   4.070   5.885   2.035 -0.3424 -1.9272 -2.5138
  341PC      HB15199   4.242   5.926   2.076  1.4177 -0.7328 -0.8021
  341PC     O3115200   4.213   5.765   1.962 -0.2778  0.6646 -0.7525
  341PC     P3115201   4.129   5.655   1.894 -0.4271  0.2194  0.0403
  341PC     O3215202   4.184   5.522   1.958 -0.3874  0.0650  0.0074
  341PC     C3115203   4.238   5.421   1.876 -0.2879  0.4410  0.2909
  341PC     H1A15204   4.312   5.461   1.807 -0.4632 -1.3284 -0.9951
  341PC     H1B15205   4.292   5.343   1.931  0.0334 -0.3310 -1.0722
  341PC     C3215206   4.129   5.344   1.806 -0.2606  0.6997  0.4361
  341PC     H2A15207   4.079   5.300   1.893  1.6978  1.8499  2.2511
  341PC     H2B15208   4.070   5.417   1.751 -0.1585  0.0744 -0.5061
  341PC     N3115209   4.176   5.241   1.702  0.4580 -0.2594  0.1760
  341PC     C3315210   4.059   5.194   1.633 -0.1434  0.2293  0.8161
  341PC     H3A15211   4.023   5.276   1.569  0.9101  0.3323  0.3300
  341PC     H3B15212   4.075   5.109   1.566 -1.0786  0.0186  0.8502
  341PC     H3C15213   3.984   5.168   1.708  0.7780 -1.6707  1.1114
  341PC     C3415214   4.270   5.308   1.610  0.5648 -0.2834 -0.4914
  341PC     H4A15215   4.252   5.415   1.622 -1.8229 -0.6934  0.1274
  341PC     H4B15216   4.368   5.287   1.654 -0.0259 -2.5789 -0.1233
  341PC     H4C15217   4.254   5.257   1.515 -0.2693 -1.1117  0.0671
  341PC     C3515218   4.253   5.133   1.770 -0.5798 -0.0770  0.9491
  341PC     H5A15219   4.273   5.061   1.692  0.1552  0.0009  1.0566
  341PC     H5B15220   4.186   5.090   1.845 -3.4703  1.0254 -0.8194
  341PC     H5C15221   4.338   5.181   1.819 -1.1371 -0.2426  2.1178
  341PC     O3315222   3.987   5.666   1.931  0.5343 -0.4372 -0.5177
  341PC     O3415223   4.180   5.655   1.751  0.3721  0.6120  0.0433
  341PC     O2115224   4.101   5.868   2.310  0.4944  0.1610 -0.5813
  341PC     C2115225   4.006   5.835   2.395  0.5581  0.4140 -1.2502
  341PC     O2215226   3.951   5.727   2.406 -0.0064 -0.4526  0.3503
  342OL     C1215227   3.957   5.948   2.493  0.7863  0.2743  0.4028
  342OL     H2R15228   3.865   5.917   2.541  1.1513 -0.4318  0.6522
  342OL     H2S15229   3.927   6.040   2.442  1.0667  0.1083 -0.0663
  342OL     C1315230   4.065   5.987   2.591  0.0045  0.9351  0.1224
  342OL     H3R15231   4.034   6.060   2.666  1.2832 -0.1468  1.7600
  342OL     H3S15232   4.150   6.018   2.530  1.2383 -1.0722  0.6991
  342OL     C1415233   4.118   5.868   2.680 -0.3160 -0.9783 -0.6467
  342OL     H4R15234   4.215   5.890   2.725 -1.4151  0.8701  0.9513
  342OL     H4S15235   4.119   5.778   2.617  0.2787 -0.3927 -1.4948
  342OL     C1515236   4.023   5.837   2.801  0.3596 -0.1547  0.0145
  342OL     H5R15237   3.929   5.797   2.763  0.2958 -1.0538  1.0966
  342OL     H5S15238   4.011   5.931   2.853 -1.1491 -0.4710  0.2598
  342OL     C1615239   4.085   5.732   2.896  0.1044  0.1265 -0.7653
  342OL     H6R15240   4.167   5.687   2.839  0.4258 -0.1523 -0.0858
  342OL     H6S15241   4.020   5.651   2.930  1.1176 -0.8874 -1.1982
  342OL     C1715242   4.139   5.792   3.027 -0.7821 -0.8980  0.8509
  342OL     H7R15243   4.057   5.844   3.078  0.1153  1.4363  0.0139
  342OL     H7S15244   4.214   5.866   3.001  0.7200 -1.9511  2.0051
  342OL     C1815245   4.206   5.690   3.119 -1.3543 -0.1049  0.1933
  342OL     H8R15246   4.257   5.755   3.191 -0.7245  1.5318 -1.6506
  342OL     H8S15247   4.276   5.632   3.059  0.5614  1.9349  0.3257
  342OL     C1915248   4.104   5.597   3.183 -0.0839  0.0693 -0.0839
  342OL     H9R15249   4.022   5.551   3.128 -2.1487  1.3724  1.7478
  342OL    C11015250   4.099   5.567   3.311 -0.3473  0.0366 -0.5199
  342OL    H10R15251   4.023   5.501   3.353  0.0223  0.9206  1.6480
  342OL    C11115252   4.186   5.620   3.428  0.7563 -0.1364 -0.0896
  342OL    H11R15253   4.270   5.680   3.392 -0.1105  2.1272  1.3931
  342OL    H11S15254   4.220   5.540   3.494 -0.2879 -0.7689 -0.2981
  342OL    C11215255   4.095   5.713   3.512  0.0198 -0.4402  0.1174
  342OL    H12R15256   4.016   5.653   3.557 -1.8474  1.8372  0.0917
  342OL    H12S15257   4.041   5.780   3.444  0.0685 -0.6920 -0.1690
  342OL    C11315258   4.164   5.798   3.616  0.5637  0.0213  0.1991
  342OL    H13R15259   4.226   5.868   3.559 -0.6391  0.1693 -0.9889
  342OL    H13S15260   4.233   5.748   3.684  2.7399  1.6864 -0.6535
  342OL    C11415261   4.075   5.889   3.694  0.0555 -0.0766 -0.3465
  342OL    H14R15262   4.009   5.827   3.754  0.5390  1.8428  2.3735
  342OL    H14S15263   4.011   5.945   3.624 -0.0775 -2.0353 -1.8941
  342OL    C11515264   4.146   5.985   3.788 -0.1557 -0.0310 -0.9417
  342OL    H15R15265   4.090   6.078   3.796  0.8838  0.4738  1.0540
  342OL    H15S15266   4.243   6.019   3.752 -0.2616  1.6412  0.2441
  342OL    C11615267   4.166   5.919   3.923  0.3697 -0.3179  0.2190
  342OL    H16R15268   4.223   5.828   3.907 -0.9119 -1.1551  0.2094
  342OL    H16S15269   4.069   5.884   3.961 -0.6778 -0.7330 -2.6010
  342OL    C11715270   4.236   6.012   4.020 -0.0434  0.0233 -0.0665
  342OL    H17R15271   4.195   6.112   4.004  0.1331 -0.0532 -1.0216
  342OL    H17S15272   4.336   6.029   3.980  0.2275 -0.0058  0.5883
  342OL    C11815273   4.232   5.965   4.162  0.1485 -0.5526 -0.3654
  342OL    H18R15274   4.266   6.042   4.232 -1.7916 -1.2687  1.4623
  342OL    H18S15275   4.287   5.872   4.181  1.1634 -0.1640 -1.2526
  342OL    H18T15276   4.130   5.949   4.198  0.9086 -0.2604  2.1021
  343PA    C11615277   3.441   4.209   4.001  0.2832 -0.1454 -0.5027
  343PA    H16R15278   3.406   4.303   3.958 -1.3043  0.0120  1.0195
  343PA    H16S15279   3.548   4.226   4.016  0.4866 -0.4073 -1.5366
  343PA    H16T15280   3.386   4.181   4.091  0.0704 -0.2775 -0.6730
  343PA    C11515281   3.413   4.106   3.894 -0.1332 -0.5148  0.0449
  343PA    H15R15282   3.419   4.002   3.926 -2.8303 -0.6161  0.3962
  343PA    H15S15283   3.310   4.123   3.865 -1.3003 -2.4705  2.6934
  343PA    C11415284   3.487   4.121   3.758 -0.1065 -0.1996  0.0114
  343PA    H14R15285   3.486   4.225   3.725 -0.7919 -0.5143 -0.9863
  343PA    H14S15286   3.588   4.081   3.771  0.4426  0.4341 -1.8919
  343PA    C11315287   3.423   4.037   3.643  0.3349 -0.2085  0.0926
  343PA    H13R15288   3.455   3.933   3.650 -0.9121 -0.6625 -0.6604
  343PA    H13S15289   3.315   4.037   3.652 -0.0903  0.0559 -3.5822
  343PA    C11215290   3.456   4.094   3.508 -0.7514  0.4297 -0.0400
  343PA    H12R15291   3.385   4.040   3.446  1.6652 -2.7945 -0.2531
  343PA    H12S15292   3.427   4.199   3.499 -1.0410  0.5189  1.6072
  343PA    C11115293   3.602   4.075   3.464  0.2798  0.0721  0.4818
  343PA    H11R15294   3.657   4.124   3.544 -0.8555  0.0248  1.3191
  343PA    H11S15295   3.623   3.968   3.459 -0.4609 -0.0722  0.2140
  343PA    C11015296   3.624   4.139   3.322  0.0679  0.1167 -0.1588
  343PA    H10R15297   3.567   4.076   3.254 -0.5983 -0.8784  1.2502
  343PA    H10S15298   3.596   4.244   3.328  1.4513  0.6953 -2.5286
  343PA     C1915299   3.773   4.123   3.286  0.5975 -0.1284 -0.3347
  343PA     H9R15300   3.831   4.185   3.355 -1.7002  1.0000  0.6967
  343PA     H9S15301   3.807   4.020   3.300  1.3799  0.3779  1.7653
  343PA     C1815302   3.803   4.163   3.139 -0.4599 -0.2086 -0.9000
  343PA     H8R15303   3.779   4.269   3.125 -0.7077  0.1171  1.6247
  343PA     H8S15304   3.908   4.135   3.128 -0.4202 -1.6370  2.2210
  343PA     C1715305   3.719   4.079   3.038  0.1650 -0.2501  0.5420
  343PA     H7R15306   3.718   3.975   3.072  0.4491 -1.0815 -1.7826
  343PA     H7S15307   3.616   4.114   3.031  0.2498 -0.2023 -0.6122
  343PA     C1615308   3.787   4.084   2.898  0.3387  0.2299 -0.1382
  343PA     H6R15309   3.779   4.188   2.864 -2.6790 -0.1027 -0.6711
  343PA     H6S15310   3.892   4.058   2.913  0.2202 -0.3251 -0.2522
  343PA     C1515311   3.727   3.982   2.793  0.0892  0.3588  0.4429
  343PA     H5R15312   3.775   3.884   2.809 -1.2325 -0.1388  1.5304
  343PA     H5S15313   3.620   3.968   2.807  0.1692 -1.6739 -0.5821
  343PA     C1415314   3.752   4.028   2.651 -0.4699 -0.1135 -0.1346
  343PA     H4R15315   3.694   4.116   2.623 -0.6764 -0.9322 -2.5633
  343PA     H4S15316   3.859   4.051   2.646  0.0261 -0.9763  3.7130
  343PA     C1315317   3.727   3.916   2.540  0.6444  0.2668 -0.6860
  343PA     H3R15318   3.772   3.954   2.448 -0.9101  1.6065 -0.9326
  343PA     H3S15319   3.773   3.820   2.564 -2.1648 -0.8024  0.8755
  343PA     C1215320   3.575   3.889   2.510  0.6956  0.2727  0.1160
  343PA     H2R15321   3.523   3.850   2.598 -0.7847 -0.0437 -0.8693
  343PA     H2S15322   3.517   3.978   2.488 -1.1862 -0.8766  0.1868
  344PC     C1115323   3.556   3.792   2.397  0.2878 -0.8527  0.2006
  344PC     O1215324   3.584   3.806   2.280 -0.5871  0.3047  0.6292
  344PC     O1115325   3.520   3.674   2.438  0.6706 -0.0697 -0.4063
  344PC      C115326   3.463   3.569   2.354  0.7301 -0.3365 -0.3886
  344PC      HR15327   3.395   3.511   2.417  0.0915  0.0556 -0.7120
  344PC      HS15328   3.408   3.619   2.273  1.9340  1.8530  0.0666
  344PC      C215329   3.580   3.481   2.303 -0.1171 -0.1126  1.0635
  344PC      HX15330   3.643   3.559   2.259 -2.1704  1.0771  0.0817
  344PC      C315331   3.530   3.367   2.213  0.5206 -0.3771  0.2491
  344PC      HA15332   3.612   3.317   2.160 -0.1988 -3.7029  2.0018
  344PC      HB15333   3.480   3.297   2.281 -0.2948  0.9360  1.0325
  344PC     O3115334   3.422   3.405   2.126  0.1853  0.1575  0.1627
  344PC     P3115335   3.449   3.460   1.974  0.4808  0.2099 -0.4631
  344PC     O3215336   3.473   3.614   2.007  0.1408  0.3999  0.3937
  344PC     C3115337   3.604   3.685   1.983  0.8909 -0.3933 -0.5899
  344PC     H1A15338   3.606   3.779   2.037 -0.2982  0.1480 -1.4547
  344PC     H1B15339   3.686   3.622   2.020  1.2321  0.2896 -0.1699
  344PC     C3215340   3.625   3.710   1.832  0.1809 -0.6686  0.2977
  344PC     H2A15341   3.714   3.773   1.821 -2.0785  2.4817 -1.3606
  344PC     H2B15342   3.633   3.608   1.795  2.0486 -1.1271  1.7944
  344PC     N3115343   3.511   3.782   1.763  0.1007  0.2852  0.2185
  344PC     C3315344   3.387   3.703   1.740 -0.0527 -0.0427 -0.9099
  344PC     H3A15345   3.409   3.602   1.704 -0.3186 -0.9688  1.3814
  344PC     H3B15346   3.339   3.697   1.838 -0.5619 -1.4479 -1.2238
  344PC     H3C15347   3.329   3.760   1.668  1.2910  0.9738 -1.2252
  344PC     C3415348   3.474   3.917   1.814  0.3803 -0.0454  0.0680
  344PC     H4A15349   3.565   3.976   1.803  1.0164 -0.8497  0.8867
  344PC     H4B15350   3.389   3.957   1.758  0.0090  0.5118  0.9942
  344PC     H4C15351   3.443   3.898   1.917  1.7068  1.4256  0.7805
  344PC     C3515352   3.562   3.818   1.623  0.3999 -0.4294 -0.1113
  344PC     H5A15353   3.661   3.863   1.624 -0.0201  0.5067 -0.0178
  344PC     H5B15354   3.485   3.886   1.586 -1.8674 -1.3163  2.5856
  344PC     H5C15355   3.564   3.730   1.559 -2.0543 -0.7086  0.0702
  344PC     O3315356   3.576   3.398   1.929 -0.2237 -0.2569  0.2649
  344PC     O3415357   3.320   3.444   1.898 -0.3392 -0.3506 -0.2877
  344PC     O2115358   3.643   3.431   2.421 -0.7561  0.7395  0.3656
  344PC     C2115359   3.768   3.392   2.397  0.1136 -0.5772  0.0484
  344PC     O2215360   3.826   3.400   2.292  0.3520 -0.6462  0.4486
  345OL     C1215361   3.832   3.336   2.517  0.3031 -0.4945 -0.2271
  345OL     H2R15362   3.936   3.308   2.497  0.4583  1.1208 -1.8542
  345OL     H2S15363   3.770   3.252   2.550 -0.0375 -0.1906 -0.0862
  345OL     C1315364   3.829   3.429   2.644 -0.0595 -0.5379  0.2431
  345OL     H3R15365   3.733   3.480   2.649  0.0689 -0.3896  2.2718
  345OL     H3S15366   3.896   3.513   2.627 -1.4440  0.2765 -1.3982
  345OL     C1415367   3.857   3.360   2.780 -0.3017  0.2965 -0.3172
  345OL     H4R15368   3.775   3.293   2.809  0.5839 -0.1984  1.1598
  345OL     H4S15369   3.844   3.443   2.850  0.1641  1.1666 -1.2424
  345OL     C1515370   3.999   3.291   2.794  0.4801 -0.7043 -0.3487
  345OL     H5R15371   4.013   3.218   2.714 -1.7195 -1.5093 -0.0878
  345OL     H5S15372   3.997   3.232   2.886 -1.6581 -0.0532  0.0894
  345OL     C1615373   4.113   3.392   2.788 -0.4735  0.5011 -0.3500
  345OL     H6R15374   4.109   3.459   2.701  1.2074  0.7256 -0.2933
  345OL     H6S15375   4.210   3.343   2.794 -1.2380 -1.0129  0.1504
  345OL     C1715376   4.127   3.476   2.918 -0.0844 -0.3044  0.6019
  345OL     H7R15377   4.040   3.540   2.935  0.0796  0.1496 -0.2721
  345OL     H7S15378   4.212   3.540   2.896 -0.2704 -0.7850 -1.7718
  345OL     C1815379   4.164   3.380   3.031  0.2027 -0.3540  0.2083
  345OL     H8R15380   4.263   3.336   3.017  0.6852  0.4424  1.0190
  345OL     H8S15381   4.086   3.307   3.055  0.3747 -0.1185  1.5534
  345OL     C1915382   4.192   3.468   3.154  0.2983 -0.1333  0.9670
  345OL     H9R15383   4.212   3.573   3.134 -0.0960 -0.2166  0.0918
  345OL    C11015384   4.195   3.432   3.280 -0.4411  0.4330 -0.6536
  345OL    H10R15385   4.206   3.511   3.353  0.3065  0.3616 -0.6846
  345OL    C11115386   4.188   3.284   3.329  0.1924  0.0799 -0.1323
  345OL    H11R15387   4.172   3.217   3.244  2.9855  0.9074 -1.4342
  345OL    H11S15388   4.100   3.292   3.392  0.0627  2.9406 -0.5574
  345OL    C11215389   4.312   3.255   3.415 -0.1914  0.4623 -0.0014
  345OL    H12R15390   4.282   3.167   3.472 -1.8913  1.6210  0.9885
  345OL    H12S15391   4.331   3.346   3.473  0.9212 -0.6146  1.4243
  345OL    C11315392   4.432   3.220   3.324  0.2129  0.0998 -0.0624
  345OL    H13R15393   4.473   3.314   3.286  1.2833 -0.9069 -1.5109
  345OL    H13S15394   4.400   3.162   3.238  1.2879 -0.7863  0.1196
  345OL    C11415395   4.548   3.144   3.394  0.0355  0.0017  0.5667
  345OL    H14R15396   4.571   3.203   3.483  0.1799 -0.7860  1.0551
  345OL    H14S15397   4.635   3.140   3.329  0.6029  0.7202  1.2616
  345OL    C11515398   4.503   3.004   3.446 -1.3009  0.2335  0.0670
  345OL    H15R15399   4.438   2.956   3.373  0.9704 -3.0742  0.0045
  345OL    H15S15400   4.449   3.019   3.540 -0.6997  1.6180  0.2021
  345OL    C11615401   4.621   2.906   3.461  0.3890  0.9946 -0.8840
  345OL    H16R15402   4.688   2.955   3.532  0.0986  1.3610 -0.8567
  345OL    H16S15403   4.678   2.885   3.371  1.7636 -1.6163  0.4613
  345OL    C11715404   4.575   2.770   3.524 -0.0258  0.3779 -0.6367
  345OL    H17R15405   4.643   2.688   3.504 -0.4146  0.4046 -2.1959
  345OL    H17S15406   4.485   2.736   3.472  0.3037 -1.0658 -0.3208
  345OL    C11815407   4.539   2.765   3.673 -0.2800 -0.2844  0.3702
  345OL    H18R15408   4.495   2.858   3.707  1.1411  0.4576  0.2995
  345OL    H18S15409   4.627   2.750   3.736  0.9090 -2.2320 -1.5938
  345OL    H18T15410   4.472   2.682   3.695 -1.9437  0.8130 -0.3737
  346PA    C11615411  -1.644  -0.346   3.606  0.3201 -0.4956  0.0004
  346PA    H16R15412  -1.716  -0.327   3.687  2.4484 -2.5857  2.5674
  346PA    H16S15413  -1.584  -0.255   3.607  1.4227 -1.2053  0.6371
  346PA    H16T15414  -1.588  -0.431   3.646  1.1069 -0.5257 -1.1108
  346PA    C11515415  -1.703  -0.363   3.462  0.2655  0.0559 -0.6381
  346PA    H15R15416  -1.781  -0.439   3.470  0.7830 -0.5295 -1.0356
  346PA    H15S15417  -1.747  -0.268   3.433  2.8979  1.3998 -0.4937
  346PA    C11415418  -1.599  -0.417   3.365  0.0891  0.3202  0.6902
  346PA    H14R15419  -1.557  -0.513   3.394  1.5774  0.8092  0.2305
  346PA    H14S15420  -1.650  -0.439   3.271 -3.0992  0.5680  2.2216
  346PA    C11315421  -1.495  -0.311   3.320  0.1648 -0.2733 -0.5873
  346PA    H13R15422  -1.454  -0.274   3.415 -1.0468 -1.4671  0.4405
  346PA    H13S15423  -1.419  -0.356   3.256 -1.0493  0.5199 -2.6852
  346PA    C11215424  -1.564  -0.197   3.244  0.0496 -0.5871  0.1164
  346PA    H12R15425  -1.614  -0.241   3.157 -0.4504  0.5297 -0.1803
  346PA    H12S15426  -1.648  -0.156   3.300  1.3445  2.9524 -0.2458
  346PA    C11115427  -1.475  -0.090   3.186 -0.7611 -0.2911  0.4273
  346PA    H11R15428  -1.411  -0.049   3.264  1.2154 -1.6469 -0.4049
  346PA    H11S15429  -1.399  -0.125   3.116 -1.6033 -0.8116 -0.2491
  346PA    C11015430  -1.564   0.020   3.127  0.5122  0.1836  0.0253
  346PA    H10R15431  -1.618  -0.014   3.038  1.7732 -1.2974 -0.2167
  346PA    H10S15432  -1.625   0.063   3.206  1.3761 -0.6247  1.1719
  346PA     C1915433  -1.483   0.137   3.072  0.0384  0.1565  0.4860
  346PA     H9R15434  -1.418   0.178   3.150 -0.6283 -0.2198  1.2545
  346PA     H9S15435  -1.410   0.091   3.005 -0.9751  0.0267 -0.5614
  346PA     C1815436  -1.570   0.246   3.004  0.1980  0.2231 -0.2085
  346PA     H8R15437  -1.661   0.208   2.956  0.0203  0.1952  0.1453
  346PA     H8S15438  -1.604   0.306   3.089 -0.8690 -1.3178  0.5084
  346PA     C1715439  -1.507   0.330   2.894  0.4527  0.4534  0.0193
  346PA     H7R15440  -1.578   0.412   2.887  2.0271  1.9321  0.5486
  346PA     H7S15441  -1.408   0.367   2.922  0.9739 -1.9587  1.7037
  346PA     C1615442  -1.498   0.261   2.759  0.0855 -0.2289 -0.9079
  346PA     H6R15443  -1.461   0.159   2.771 -2.8256 -1.1763  1.0085
  346PA     H6S15444  -1.602   0.252   2.727  0.6080 -1.8560 -2.3011
  346PA     C1515445  -1.412   0.333   2.656 -0.1255  0.0237  0.5807
  346PA     H5R15446  -1.461   0.426   2.628  0.0599  0.2214  0.9099
  346PA     H5S15447  -1.308   0.353   2.685  0.3316  1.0215 -1.5714
  346PA     C1415448  -1.421   0.236   2.532  0.5222 -1.0006 -0.1839
  346PA     H4R15449  -1.356   0.149   2.539  2.0672  0.1536  0.6510
  346PA     H4S15450  -1.521   0.196   2.518  0.8231 -1.8848  0.1753
  346PA     C1315451  -1.373   0.308   2.406  0.8640  0.5483 -0.6360
  346PA     H3R15452  -1.414   0.409   2.403  2.3954  1.2227 -0.0138
  346PA     H3S15453  -1.265   0.316   2.415  0.7715  1.9807 -0.6016
  346PA     C1215454  -1.423   0.237   2.279  0.2620 -0.0578  0.0942
  346PA     H2R15455  -1.371   0.141   2.270 -1.0322 -0.6940 -0.9051
  346PA     H2S15456  -1.524   0.197   2.287  1.1699 -2.5815 -0.2048
  347PC     C1115457  -1.392   0.311   2.157  0.0212  0.0725 -0.7125
  347PC     O1215458  -1.454   0.301   2.054 -0.0728 -0.1392 -0.1782
  347PC     O1115459  -1.280   0.388   2.161  0.1900  0.0961  0.8362
  347PC      C115460  -1.235   0.460   2.043 -0.2952 -0.2132  1.0968
  347PC      HR15461  -1.135   0.427   2.016 -1.3746 -1.0743 -2.2653
  347PC      HS15462  -1.301   0.449   1.957  0.3228 -0.0731  0.5980
  347PC      C215463  -1.234   0.609   2.078 -0.1381  0.0001  0.2384
  347PC      HX15464  -1.338   0.643   2.088  0.0903  0.3670  1.5671
  347PC      C315465  -1.177   0.699   1.962  0.6704  0.2080  0.6207
  347PC      HA15466  -1.253   0.717   1.887  0.2530  0.9914  1.2160
  347PC      HB15467  -1.161   0.799   2.005 -1.7727  0.6258  0.6905
  347PC     O3115468  -1.063   0.639   1.892 -0.3069 -0.0652 -0.2765
  347PC     P3115469  -1.080   0.581   1.745  0.1790  0.4988  0.0968
  347PC     O3215470  -1.061   0.692   1.649  0.5582 -0.3185  0.3428
  347PC     C3115471  -1.160   0.792   1.617  0.4651  0.1111 -0.4300
  347PC     H1A15472  -1.229   0.794   1.701  1.2857 -1.7707  0.3371
  347PC     H1B15473  -1.121   0.894   1.605 -0.4100  0.3031 -1.9872
  347PC     C3215474  -1.224   0.744   1.487 -0.5606  1.3799 -0.3899
  347PC     H2A15475  -1.259   0.643   1.508  1.5119  0.4155 -1.2277
  347PC     H2B15476  -1.313   0.804   1.464 -1.0999  0.3097 -1.1601
  347PC     N3115477  -1.142   0.731   1.358 -0.2608  0.0229  0.0695
  347PC     C3315478  -1.239   0.710   1.242  0.0580 -0.1937  0.0803
  347PC     H3A15479  -1.289   0.614   1.251  0.5662 -0.4688  0.0080
  347PC     H3B15480  -1.320   0.782   1.259 -0.3675 -0.5223 -0.5324
  347PC     H3C15481  -1.172   0.722   1.157  0.2950 -0.1671  0.2700
  347PC     C3415482  -1.063   0.861   1.319  0.3485  0.3366  0.3432
  347PC     H4A15483  -1.074   0.859   1.211 -0.1426 -0.7917  0.4017
  347PC     H4B15484  -1.130   0.939   1.354  0.5406  0.0471  1.3950
  347PC     H4C15485  -0.959   0.863   1.353  0.1097 -2.9369  1.7033
  347PC     C3515486  -1.064   0.606   1.367 -0.5077  0.4474  0.0138
  347PC     H5A15487  -0.990   0.611   1.447  0.4695  0.7742 -0.8889
  347PC     H5B15488  -1.008   0.586   1.276 -0.0883 -0.6553  0.4961
  347PC     H5C15489  -1.129   0.519   1.375  1.8867 -1.2864  2.5166
  347PC     O3315490  -0.979   0.483   1.718 -0.5175  0.5898 -0.2283
  347PC     O3415491  -1.220   0.533   1.736 -0.4683 -0.6374  0.1135
  347PC     O2115492  -1.157   0.633   2.199  0.5322 -0.0996  0.0841
  347PC     C2115493  -1.216   0.647   2.313 -1.1017 -0.2292 -1.0090
  347PC     O2215494  -1.337   0.637   2.327  0.0799 -0.3254  0.2383
  348OL     C1215495  -1.113   0.684   2.422  0.2048  0.1132 -0.4165
  348OL     H2R15496  -1.053   0.767   2.384  2.8344 -1.1202  0.7594
  348OL     H2S15497  -1.049   0.598   2.447  1.6933  1.2856 -0.0687
  348OL     C1315498  -1.189   0.724   2.549 -0.2309 -0.4156 -0.3677
  348OL     H3R15499  -1.251   0.639   2.575  0.4321 -1.0308 -0.7387
  348OL     H3S15500  -1.254   0.809   2.527 -0.9755 -0.8892 -0.0198
  348OL     C1415501  -1.088   0.750   2.665 -0.1662 -0.3948 -0.1257
  348OL     H4R15502  -1.130   0.823   2.736 -0.3540  1.2896 -1.8925
  348OL     H4S15503  -0.999   0.801   2.628 -1.4624  1.0530 -1.3657
  348OL     C1515504  -1.022   0.632   2.743 -1.0048 -0.0560  0.2016
  348OL     H5R15505  -0.936   0.669   2.800  0.3440  2.2435 -3.0106
  348OL     H5S15506  -0.979   0.557   2.677 -0.1789 -0.4450  1.1542
  348OL     C1615507  -1.111   0.565   2.842  0.0941 -0.8817 -0.4759
  348OL     H6R15508  -1.062   0.479   2.887 -0.7170 -1.2395 -0.2542
  348OL     H6S15509  -1.204   0.534   2.793 -0.6846 -1.3338  1.2183
  348OL     C1715510  -1.150   0.665   2.955 -0.1182  0.3657  0.4207
  348OL     H7R15511  -1.213   0.750   2.926 -1.0758 -0.4146  0.1825
  348OL     H7S15512  -1.059   0.715   2.991  0.5069 -0.2929 -0.2209
  348OL     C1815513  -1.205   0.594   3.081  0.2885  0.2121 -0.5102
  348OL     H8R15514  -1.142   0.505   3.089 -0.2209 -0.3343 -2.2035
  348OL     H8S15515  -1.308   0.564   3.067  0.0768 -0.1804  1.5732
  348OL     C1915516  -1.191   0.680   3.200 -0.5343  0.6331 -0.3388
  348OL     H9R15517  -1.122   0.762   3.182 -0.2000  0.3282 -0.4729
  348OL    C11015518  -1.272   0.666   3.306 -0.2044  0.0580 -0.8974
  348OL    H10R15519  -1.261   0.739   3.386  1.1401 -0.9130 -0.1451
  348OL    C11115520  -1.379   0.570   3.327  0.2394 -0.4227 -0.0183
  348OL    H11R15521  -1.421   0.530   3.234 -2.1222 -0.9166  1.1938
  348OL    H11S15522  -1.459   0.624   3.377  0.3954  0.1421 -0.3625
  348OL    C11215523  -1.342   0.455   3.413 -0.1829  0.0412 -0.7322
  348OL    H12R15524  -1.282   0.488   3.498 -0.8156  2.9601 -1.3116
  348OL    H12S15525  -1.279   0.388   3.354  0.8851 -1.1283  1.6174
  348OL    C11315526  -1.456   0.366   3.463  0.1305  0.0030 -0.3464
  348OL    H13R15527  -1.509   0.324   3.377 -0.4931  1.0408 -0.4872
  348OL    H13S15528  -1.526   0.435   3.512  1.2996  0.5501  0.6021
  348OL    C11415529  -1.431   0.257   3.569  0.8391 -1.1709  0.0204
  348OL    H14R15530  -1.531   0.222   3.597  0.0997  1.9250  1.7331
  348OL    H14S15531  -1.397   0.320   3.651  0.8713  0.8658 -1.4604
  348OL    C11515532  -1.336   0.136   3.527 -0.5210  0.2249  0.2236
  348OL    H15R15533  -1.256   0.162   3.458  0.6630  0.8608  1.7825
  348OL    H15S15534  -1.396   0.064   3.471 -1.1941  0.8396  0.1254
  348OL    C11615535  -1.273   0.060   3.644  0.1686 -0.1803 -0.1752
  348OL    H16R15536  -1.352   0.041   3.717 -1.1896 -1.0633 -1.8083
  348OL    H16S15537  -1.198   0.120   3.696  0.0075  0.9561 -1.2043
  348OL    C11715538  -1.223  -0.075   3.605 -0.2826  0.5989  0.1333
  348OL    H17R15539  -1.136  -0.065   3.539 -0.8422  0.5242 -0.6352
  348OL    H17S15540  -1.300  -0.134   3.554  2.8776 -1.6366 -2.4713
  348OL    C11815541  -1.159  -0.153   3.728 -0.3474 -0.4819  0.2226
  348OL    H18R15542  -1.112  -0.247   3.698 -1.8819 -1.4618  0.7559
  348OL    H18S15543  -1.247  -0.169   3.790 -1.8785 -2.1952 -2.2355
  348OL    H18T15544  -1.093  -0.079   3.775 -1.4685 -0.6186  2.1548
  349PA    C11615545   4.019   7.409   3.814 -0.3731  0.7456  0.0791
  349PA    H16R15546   3.985   7.390   3.916 -0.3908 -1.7880 -0.3329
  349PA    H16S15547   3.935   7.384   3.748  0.9874  1.1180 -1.8824
  349PA    H16T15548   4.036   7.517   3.806 -2.7364  1.1231 -0.6076
  349PA    C11515549   4.139   7.309   3.775 -0.3660  0.0578  0.0558
  349PA    H15R15550   4.219   7.312   3.849  1.1345 -1.4113 -1.4235
  349PA    H15S15551   4.094   7.210   3.784 -0.5575  0.2247  0.9905
  349PA    C11415552   4.193   7.312   3.634 -0.5331 -0.0382  0.6990
  349PA    H14R15553   4.111   7.330   3.563  0.6300  0.6481 -0.5058
  349PA    H14S15554   4.252   7.402   3.616 -0.1195 -0.9266 -3.3517
  349PA    C11315555   4.277   7.189   3.600 -0.0804  0.4861 -0.1294
  349PA    H13R15556   4.340   7.187   3.689 -0.5234 -2.5710  0.2135
  349PA    H13S15557   4.230   7.092   3.586  2.8691 -0.7385 -2.5031
  349PA    C11215558   4.353   7.207   3.470  0.4746  0.4392  0.5747
  349PA    H12R15559   4.274   7.204   3.394  1.8475  0.1674 -0.8768
  349PA    H12S15560   4.400   7.305   3.476  2.0274 -0.2495  0.0332
  349PA    C11115561   4.452   7.097   3.442  0.3096  0.0157 -0.1000
  349PA    H11R15562   4.535   7.113   3.511  0.3792  0.8601 -0.3743
  349PA    H11S15563   4.405   7.002   3.471  1.5287 -0.4466  0.4514
  349PA    C11015564   4.520   7.097   3.307 -0.1543 -0.5561  0.0812
  349PA    H10R15565   4.573   7.193   3.303 -0.2780 -0.5220 -2.0011
  349PA    H10S15566   4.596   7.020   3.298  0.6397  0.1503  0.5614
  349PA     C1915567   4.418   7.077   3.193  0.4682 -0.4184 -0.5200
  349PA     H9R15568   4.355   6.989   3.207  0.1968 -0.4548 -1.8555
  349PA     H9S15569   4.347   7.160   3.184 -0.4346 -1.0332  0.6571
  349PA     C1815570   4.490   7.059   3.058 -0.3992 -0.0218 -0.5193
  349PA     H8R15571   4.416   7.038   2.981  1.4001 -0.1896 -2.3047
  349PA     H8S15572   4.530   7.157   3.031  2.2610 -0.8617  0.0714
  349PA     C1715573   4.610   6.955   3.051  0.5387  0.3668 -0.5160
  349PA     H7R15574   4.692   6.991   3.114 -0.0987 -1.1192  1.2721
  349PA     H7S15575   4.568   6.859   3.082  0.4142 -0.1370 -2.1835
  349PA     C1615576   4.662   6.939   2.909  0.1829  0.1666 -0.1694
  349PA     H6R15577   4.750   6.875   2.910  1.8147  2.3028 -0.2346
  349PA     H6S15578   4.587   6.883   2.852 -0.5641  2.5939 -1.7595
  349PA     C1515579   4.701   7.072   2.838  0.4464  0.3396 -0.6736
  349PA     H5R15580   4.705   7.154   2.911 -0.2332 -1.4475  1.4774
  349PA     H5S15581   4.804   7.054   2.805  0.5868  0.2956 -0.2152
  349PA     C1415582   4.614   7.113   2.718  0.1541 -0.2095 -0.0725
  349PA     H4R15583   4.595   7.026   2.654  0.1169  0.3464 -0.8270
  349PA     H4S15584   4.514   7.137   2.754  0.5580  0.6720  0.4893
  349PA     C1315585   4.673   7.239   2.648  0.1396 -0.2028 -0.3174
  349PA     H3R15586   4.645   7.322   2.713 -0.6274  0.5877 -1.6220
  349PA     H3S15587   4.781   7.233   2.634 -0.0055 -0.8596 -1.2205
  349PA     C1215588   4.611   7.256   2.505 -0.5716 -0.2767 -0.1815
  349PA     H2R15589   4.649   7.167   2.454 -0.5833 -0.9424  0.9328
  349PA     H2S15590   4.502   7.251   2.507 -0.6332  0.3384 -1.5637
  350PC     C1115591   4.654   7.379   2.433  0.3198 -0.3334 -0.2759
  350PC     O1215592   4.685   7.485   2.486  0.4570 -0.7000 -0.1166
  350PC     O1115593   4.651   7.371   2.301 -0.4000  0.0021  0.4021
  350PC      C115594   4.741   7.453   2.221  0.1666  0.2666  0.2705
  350PC      HR15595   4.687   7.458   2.126 -2.7253  0.6816  1.8140
  350PC      HS15596   4.745   7.556   2.257  1.2330 -0.0390  1.0690
  350PC      C215597   4.874   7.379   2.210 -0.2925 -0.1655 -1.4732
  350PC      HX15598   4.937   7.444   2.148  0.3812  2.3496  1.6053
  350PC      C315599   4.862   7.236   2.164  0.7565 -0.3680  0.3501
  350PC      HA15600   4.959   7.189   2.145  0.2405 -0.3104 -3.0267
  350PC      HB15601   4.803   7.184   2.241  1.8216 -0.4800  1.1154
  350PC     O3115602   4.796   7.212   2.034  0.0900 -0.4711  0.4484
  350PC     P3115603   4.858   7.282   1.901  0.1988 -0.3304  0.2421
  350PC     O3215604   4.775   7.418   1.892 -0.1941  0.2181 -0.4570
  350PC     C3115605   4.840   7.542   1.874  0.3311  0.4546  0.5223
  350PC     H1A15606   4.766   7.616   1.906  0.7257  0.5759  1.1806
  350PC     H1B15607   4.929   7.548   1.937 -0.8080  1.0966  2.1433
  350PC     C3215608   4.861   7.554   1.720 -0.0089 -0.4549  0.3719
  350PC     H2A15609   4.923   7.473   1.682 -2.1984 -1.8355 -0.4501
  350PC     H2B15610   4.776   7.517   1.663  0.2413 -0.9263  0.2977
  350PC     N3115611   4.893   7.689   1.664  0.1169 -0.8390  0.1844
  350PC     C3315612   4.765   7.764   1.649  0.0691  0.4992 -0.5927
  350PC     H3A15613   4.714   7.711   1.569  0.4068  0.6678 -0.9224
  350PC     H3B15614   4.710   7.749   1.742  0.9492  0.8123 -0.0092
  350PC     H3C15615   4.776   7.872   1.637 -1.2273  1.0153  2.0788
  350PC     C3415616   4.989   7.762   1.753 -0.1470  0.1793  0.2215
  350PC     H4A15617   5.023   7.854   1.705  0.7252  0.2364  0.9255
  350PC     H4B15618   4.943   7.790   1.848 -0.5518 -0.2579  0.1589
  350PC     H4C15619   5.078   7.705   1.779  0.2054 -0.0890 -1.5003
  350PC     C3515620   4.956   7.670   1.529  1.2477 -0.6190 -0.0012
  350PC     H5A15621   4.880   7.633   1.460 -1.4746  2.1668  1.2457
  350PC     H5B15622   5.052   7.618   1.539  1.2603 -0.4745  0.7442
  350PC     H5C15623   4.977   7.770   1.490 -1.2700 -0.4764 -1.1890
  350PC     O3315624   5.002   7.300   1.924  0.1579 -0.1187  0.3477
  350PC     O3415625   4.818   7.198   1.792  0.3261 -0.8771 -0.0936
  350PC     O2115626   4.944   7.378   2.340  0.7127  0.5426  0.0143
  350PC     C2115627   5.000   7.496   2.388 -0.4117  0.2867  0.2019
  350PC     O2215628   4.984   7.605   2.336 -0.5547 -0.4859 -0.3680
  351OL     C1215629   5.090   7.468   2.506 -0.0524  0.0032 -0.0049
  351OL     H2R15630   5.179   7.532   2.500 -0.8827  1.2432  0.5021
  351OL     H2S15631   5.118   7.362   2.507 -1.4445 -0.4230  2.8786
  351OL     C1315632   5.018   7.508   2.633 -0.4435  0.0967 -0.5936
  351OL     H3R15633   4.920   7.460   2.628 -0.9369  0.9121  0.7054
  351OL     H3S15634   4.999   7.615   2.624 -0.4404 -0.0867 -4.4643
  351OL     C1415635   5.101   7.478   2.769  0.1242  0.3709  0.4154
  351OL     H4R15636   5.196   7.532   2.773 -1.0360  2.5959 -0.6935
  351OL     H4S15637   5.123   7.371   2.766 -1.2853  0.0479  0.7661
  351OL     C1515638   5.002   7.497   2.892  0.0321  0.1429  0.2259
  351OL     H5R15639   4.946   7.589   2.878 -2.3971 -1.4063 -1.0691
  351OL     H5S15640   5.072   7.521   2.973 -1.0647  0.8616  0.9947
  351OL     C1615641   4.921   7.375   2.936 -0.0990  0.0771 -0.0984
  351OL     H6R15642   4.988   7.293   2.962  0.6070  0.6485 -0.1108
  351OL     H6S15643   4.866   7.334   2.850 -0.3234 -2.3643  1.1045
  351OL     C1715644   4.809   7.404   3.039 -0.5101  0.1330 -0.2027
  351OL     H7R15645   4.747   7.313   3.036  1.6266 -1.3816 -1.1224
  351OL     H7S15646   4.747   7.484   2.999 -0.8811 -0.5093 -0.9451
  351OL     C1815647   4.859   7.431   3.178 -0.6853  0.2657  0.4539
  351OL     H8R15648   4.942   7.500   3.159  0.1452 -0.8157  0.0545
  351OL     H8S15649   4.901   7.339   3.220 -0.7713  0.4451  0.9452
  351OL     C1915650   4.755   7.498   3.269 -0.2120 -0.1874  0.2158
  351OL     H9R15651   4.693   7.574   3.223  1.5990  0.8077 -0.6998
  351OL    C11015652   4.743   7.464   3.396 -0.2564  0.2763  0.4208
  351OL    H10R15653   4.651   7.494   3.446 -1.0695 -0.1673 -0.7391
  351OL    C11115654   4.841   7.386   3.483  0.2348  0.9436 -0.1479
  351OL    H11R15655   4.843   7.444   3.575  1.2414  1.0490 -0.2334
  351OL    H11S15656   4.947   7.387   3.457  0.1179  0.7907 -0.6339
  351OL    C11215657   4.787   7.245   3.525 -0.0153  0.0133 -0.1308
  351OL    H12R15658   4.743   7.198   3.436  0.8599 -0.9586 -0.0665
  351OL    H12S15659   4.699   7.245   3.589 -0.7091 -0.4613 -1.0466
  351OL    C11315660   4.889   7.157   3.601  0.3415  0.0103  0.0884
  351OL    H13R15661   4.911   7.201   3.698 -0.1680 -0.7881  0.5757
  351OL    H13S15662   4.977   7.159   3.537  0.9934  0.4423  0.9772
  351OL    C11415663   4.834   7.022   3.647  0.2963 -0.1665  0.5248
  351OL    H14R15664   4.910   6.947   3.671 -0.7222 -1.0450  1.0435
  351OL    H14S15665   4.782   6.974   3.564  0.0143 -0.0524  0.6364
  351OL    C11515666   4.732   7.039   3.768 -0.5636 -1.3650  0.4436
  351OL    H15R15667   4.649   7.104   3.739  0.4744  0.5047  1.4787
  351OL    H15S15668   4.790   7.091   3.844 -0.1587 -1.0379 -0.0806
  351OL    C11615669   4.680   6.921   3.835  0.7404  0.1183 -0.8052
  351OL    H16R15670   4.636   6.947   3.931  2.5486 -1.1477  0.4277
  351OL    H16S15671   4.772   6.868   3.860  1.1204 -0.0542 -2.4336
  351OL    C11715672   4.596   6.825   3.753  0.4023  0.8810 -0.5717
  351OL    H17R15673   4.580   6.731   3.806 -4.1803  1.2440 -0.9292
  351OL    H17S15674   4.646   6.806   3.657  0.4124  2.7795 -0.9815
  351OL    C11815675   4.458   6.872   3.736 -0.0694  0.0846 -0.1023
  351OL    H18R15676   4.406   6.863   3.831 -1.5332  1.1968 -0.7635
  351OL    H18S15677   4.405   6.797   3.677 -1.1783  1.3693 -0.7866
  351OL    H18T15678   4.449   6.964   3.677 -1.4677 -0.3079 -0.5419
  352PA    C11615679   2.261   0.869   3.558  0.2534 -0.1734  0.3829
  352PA    H16R15680   2.340   0.799   3.586 -2.0222 -3.2751 -0.4410
  352PA    H16S15681   2.204   0.826   3.476 -0.6068  1.4563  0.0893
  352PA    H16T15682   2.198   0.886   3.646  0.1465 -1.1365  0.5071
  352PA    C11515683   2.325   1.001   3.514 -0.3066 -0.1405  0.8047
  352PA    H15R15684   2.383   0.982   3.423  0.3924  1.4167  0.8977
  352PA    H15S15685   2.246   1.069   3.481  0.7412  0.7868  0.1226
  352PA    C11415686   2.403   1.073   3.625  0.0355 -0.4141  0.7553
  352PA    H14R15687   2.444   1.159   3.572  0.6345  0.2500  2.2558
  352PA    H14S15688   2.336   1.115   3.700 -1.0716  1.1530 -1.0234
  352PA    C11315689   2.520   0.985   3.674 -0.0982  0.0175  0.2738
  352PA    H13R15690   2.479   0.902   3.730  0.2831 -0.1005  0.3822
  352PA    H13S15691   2.571   0.937   3.590  1.1336 -2.6083  2.3640
  352PA    C11215692   2.618   1.059   3.764 -0.1290  1.1829 -0.5442
  352PA    H12R15693   2.644   1.150   3.709 -1.3204  0.6285 -2.1101
  352PA    H12S15694   2.566   1.092   3.853  0.0342 -2.4753  1.0732
  352PA    C11115695   2.752   0.980   3.805 -0.2465  0.3791 -0.2251
  352PA    H11R15696   2.820   1.042   3.865  0.6387 -2.5257  2.0085
  352PA    H11S15697   2.716   0.901   3.871 -0.8686  1.9924  1.4892
  352PA    C11015698   2.838   0.907   3.702  0.4759  0.1050  0.1798
  352PA    H10R15699   2.933   0.872   3.744  0.6731 -0.5868 -0.8149
  352PA    H10S15700   2.783   0.828   3.652  1.8698 -0.7591 -0.0628
  352PA     C1915701   2.865   1.013   3.591  1.2782 -0.0272 -0.7204
  352PA     H9R15702   2.770   1.053   3.556  0.6160  0.8867  1.8925
  352PA     H9S15703   2.925   1.098   3.623  0.1362  0.1714  1.0073
  352PA     C1815704   2.957   0.955   3.473  0.1056 -0.1828 -0.1695
  352PA     H8R15705   3.058   0.932   3.508  0.2735  0.4611 -0.2136
  352PA     H8S15706   2.912   0.863   3.434  3.1348 -0.8934 -2.3719
  352PA     C1715707   2.969   1.047   3.353  0.7966 -0.4743 -1.0449
  352PA     H7R15708   2.873   1.036   3.302  0.0560 -0.9900  0.3848
  352PA     H7S15709   2.983   1.153   3.376 -2.1079  0.2692 -2.2529
  352PA     C1615710   3.070   1.002   3.254 -0.7700 -0.0191  1.2759
  352PA     H6R15711   3.172   1.018   3.290  0.0469 -0.2497 -0.8034
  352PA     H6S15712   3.063   0.896   3.229 -1.6293  0.8551 -2.9878
  352PA     C1515713   3.050   1.063   3.107 -0.2049 -0.8035  0.3430
  352PA     H5R15714   3.026   1.169   3.114  0.5046 -0.7268  2.1704
  352PA     H5S15715   3.146   1.061   3.054 -1.2734  1.3557 -1.8903
  352PA     C1415716   2.943   0.986   3.021  0.1342 -1.0427 -0.0143
  352PA     H4R15717   2.958   0.880   3.043  0.0295 -1.3125 -1.2196
  352PA     H4S15718   2.845   1.026   3.049 -0.7008 -2.8299 -0.2164
  352PA     C1315719   2.942   1.010   2.867  0.8624  0.2575 -0.0442
  352PA     H3R15720   2.936   1.118   2.849 -1.2326  0.4809  1.6185
  352PA     H3S15721   3.035   0.971   2.826 -0.0922 -1.0753 -1.0319
  352PA     C1215722   2.828   0.939   2.796  0.8248  0.2504 -0.7408
  352PA     H2R15723   2.837   0.834   2.822  2.8452  0.5761  0.0177
  352PA     H2S15724   2.730   0.978   2.825  0.3030 -0.5506 -1.3777
  353PC     C1115725   2.858   0.943   2.647  0.1621  0.5847 -0.2290
  353PC     O1215726   2.911   1.031   2.587  0.2312  0.4794  0.3762
  353PC     O1115727   2.820   0.827   2.587  0.2704  0.2482 -0.9026
  353PC      C115728   2.862   0.800   2.451  0.1761  0.2924  0.1654
  353PC      HR15729   2.815   0.712   2.406  2.4639 -1.0178  0.1807
  353PC      HS15730   2.835   0.891   2.398  1.9078  0.5454 -0.3310
  353PC      C215731   3.018   0.796   2.446 -0.5747 -0.1622  0.0632
  353PC      HX15732   3.053   0.898   2.426  0.5320 -0.9931 -2.8451
  353PC      C315733   3.065   0.725   2.319  0.0434  0.2915  0.6202
  353PC      HA15734   3.174   0.737   2.314  0.1488  1.3786  3.3617
  353PC      HB15735   3.037   0.620   2.333 -1.1799  0.1772 -2.2047
  353PC     O3115736   2.989   0.778   2.207  0.2771 -0.0570  0.3862
  353PC     P3115737   3.045   0.894   2.109 -0.4642 -0.0597 -0.5831
  353PC     O3215738   3.164   0.818   2.040 -0.0801  0.5272 -0.0316
  353PC     C3115739   3.127   0.726   1.935 -0.6722  0.1020  0.0037
  353PC     H1A15740   3.060   0.650   1.976  0.3838 -0.0742  1.5063
  353PC     H1B15741   3.078   0.775   1.851 -2.2009 -0.3151  0.6331
  353PC     C3215742   3.246   0.639   1.887  0.5771  0.5119 -0.2540
  353PC     H2A15743   3.277   0.573   1.969  1.6510  0.4494 -0.6844
  353PC     H2B15744   3.207   0.582   1.803  2.2473 -0.2333 -0.5670
  353PC     N3115745   3.369   0.706   1.836  0.1955 -1.0862 -0.4838
  353PC     C3315746   3.456   0.620   1.755  0.2761  0.7347  0.2749
  353PC     H3A15747   3.511   0.560   1.827  1.8662  1.7073 -0.0786
  353PC     H3B15748   3.407   0.551   1.686  3.6212 -1.3639 -0.2243
  353PC     H3C15749   3.522   0.687   1.700 -1.2526  1.5586 -0.6426
  353PC     C3415750   3.336   0.823   1.760  0.4418  0.4946  0.0491
  353PC     H4A15751   3.424   0.877   1.724  0.2852  0.6743 -0.0689
  353PC     H4B15752   3.271   0.793   1.678  1.5220 -0.3675 -0.5129
  353PC     H4C15753   3.275   0.889   1.822  0.0905  0.7569 -0.5637
  353PC     C3515754   3.451   0.753   1.953  0.5012 -0.2283 -0.1024
  353PC     H5A15755   3.389   0.829   2.002  0.5750 -0.0908 -0.2243
  353PC     H5B15756   3.540   0.800   1.912  0.8817 -1.1513 -0.3644
  353PC     H5C15757   3.471   0.667   2.017  0.0092 -0.0474  0.3037
  353PC     O3315758   2.948   0.927   2.003  0.2396 -1.0927 -0.0388
  353PC     O3415759   3.101   1.007   2.193 -0.2555  0.0304 -0.0968
  353PC     O2115760   3.085   0.744   2.568  0.6028 -0.0803 -0.6453
  353PC     C2115761   3.194   0.804   2.621 -0.6467 -0.2854  1.1170
  353PC     O2215762   3.241   0.908   2.574  0.6270 -0.6862 -0.4166
  354OL     C1215763   3.251   0.711   2.728 -0.3153 -0.1510 -0.7065
  354OL     H2R15764   3.352   0.749   2.748  1.0794 -4.0678  0.6885
  354OL     H2S15765   3.258   0.607   2.695 -3.0000 -1.0276  1.1136
  354OL     C1315766   3.164   0.689   2.854  0.2071  0.0581  0.5093
  354OL     H3R15767   3.073   0.646   2.813  1.3793  1.4212 -4.1484
  354OL     H3S15768   3.141   0.789   2.891  0.6630  1.0956 -1.7725
  354OL     C1415769   3.232   0.597   2.957 -0.0270  0.0763  0.1670
  354OL     H4R15770   3.323   0.646   2.991 -0.6524  1.9961 -0.7990
  354OL     H4S15771   3.256   0.503   2.908 -1.3619 -0.4417  0.4722
  354OL     C1515772   3.142   0.569   3.079  0.6076 -0.1802 -0.1062
  354OL     H5R15773   3.112   0.662   3.127 -1.6872 -1.9765  2.2395
  354OL     H5S15774   3.196   0.511   3.155 -1.0922  0.4518  1.6564
  354OL     C1615775   3.013   0.498   3.041 -0.1821  0.9543 -0.1679
  354OL     H6R15776   3.046   0.409   2.988 -1.1415  0.3555  0.2093
  354OL     H6S15777   2.954   0.566   2.978  0.2354  1.1627 -0.3427
  354OL     C1715778   2.939   0.433   3.161 -0.1310 -0.0939 -0.1747
  354OL     H7R15779   3.010   0.377   3.222 -0.5718  0.4356  0.8491
  354OL     H7S15780   2.864   0.359   3.134  0.7207 -0.6438 -1.0631
  354OL     C1815781   2.876   0.533   3.260  0.7283  0.1818 -0.6582
  354OL     H8R15782   2.955   0.604   3.284  0.9466 -0.5387  0.8766
  354OL     H8S15783   2.858   0.488   3.358  0.3245 -1.7608 -1.5661
  354OL     C1915784   2.746   0.591   3.200 -0.4321  0.0678  0.4681
  354OL     H9R15785   2.742   0.597   3.091 -0.1701 -0.2012  0.4409
  354OL    C11015786   2.643   0.637   3.266  0.1197  0.0044  0.0858
  354OL    H10R15787   2.554   0.675   3.216 -0.1246  0.2753  0.7130
  354OL    C11115788   2.643   0.666   3.417  0.0408  0.1729 -0.8030
  354OL    H11R15789   2.617   0.766   3.453 -0.7551 -0.3970  0.2689
  354OL    H11S15790   2.741   0.643   3.460  0.7053  3.4509 -0.2782
  354OL    C11215791   2.543   0.571   3.491 -0.0345  0.6906 -0.7860
  354OL    H12R15792   2.534   0.472   3.447  1.4855 -0.0964  0.5649
  354OL    H12S15793   2.447   0.625   3.491 -0.0523  0.7765  1.9702
  354OL    C11315794   2.584   0.554   3.638 -0.3183  0.1655  0.0429
  354OL    H13R15795   2.577   0.657   3.675  1.9304  0.4115 -0.0241
  354OL    H13S15796   2.687   0.519   3.645 -0.2998  0.1494 -0.3021
  354OL    C11415797   2.492   0.469   3.730  0.7930 -0.0047 -0.1285
  354OL    H14R15798   2.531   0.467   3.831 -1.1440  3.7154  0.8829
  354OL    H14S15799   2.485   0.362   3.708 -0.1345 -0.0226  0.2232
  354OL    C11515800   2.347   0.529   3.737 -0.1281  0.9297 -0.5034
  354OL    H15R15801   2.317   0.532   3.632  0.3310 -0.8243 -0.7190
  354OL    H15S15802   2.357   0.631   3.775 -0.2930  0.7219  0.1235
  354OL    C11615803   2.250   0.447   3.827 -0.4134  1.2164  0.2158
  354OL    H16R15804   2.275   0.451   3.933 -1.1147 -0.5538  0.4807
  354OL    H16S15805   2.253   0.345   3.789 -0.0436  1.6059 -0.8359
  354OL    C11715806   2.103   0.476   3.816  0.8071  0.4946  0.3300
  354OL    H17R15807   2.054   0.388   3.858 -0.8708  0.3706 -1.7562
  354OL    H17S15808   2.078   0.476   3.710 -2.7403  1.3400  1.0258
  354OL    C11815809   2.061   0.605   3.893 -0.9636 -0.0111  0.4963
  354OL    H18R15810   2.096   0.589   3.996 -0.7415 -1.3596  0.2286
  354OL    H18S15811   1.954   0.626   3.900 -0.8635  0.2562  1.3978
  354OL    H18T15812   2.120   0.692   3.862 -1.7138  1.0369  1.8692
  355PA    C11615813   1.812   8.137   3.916  0.0006 -0.4243 -0.0385
  355PA    H16R15814   1.787   8.032   3.936 -0.0424 -1.0286 -2.8906
  355PA    H16S15815   1.908   8.163   3.961  1.0145 -1.5438 -1.4937
  355PA    H16T15816   1.745   8.214   3.955 -1.6945 -1.0512 -1.5750
  355PA    C11515817   1.823   8.163   3.760 -0.4812 -0.4078 -1.1449
  355PA    H15R15818   1.852   8.268   3.755 -0.5862 -0.2963  0.3306
  355PA    H15S15819   1.902   8.099   3.720 -0.4741 -0.6581 -0.7387
  355PA    C11415820   1.691   8.150   3.674  0.0420 -0.1099 -0.1381
  355PA    H14R15821   1.641   8.056   3.699  1.0848 -0.2189  1.7569
  355PA    H14S15822   1.621   8.227   3.707  1.2951  1.0234 -0.0446
  355PA    C11315823   1.699   8.169   3.525  0.0395 -0.2268 -0.2332
  355PA    H13R15824   1.735   8.076   3.481  0.0988 -0.1662 -0.3150
  355PA    H13S15825   1.601   8.190   3.483  0.7922 -0.0612 -2.0165
  355PA    C11215826   1.788   8.285   3.485  0.0779  0.2911 -0.9055
  355PA    H12R15827   1.751   8.367   3.546 -1.6284 -1.2387  0.2232
  355PA    H12S15828   1.891   8.266   3.516 -0.4633  0.3958  1.0890
  355PA    C11115829   1.776   8.293   3.328 -0.2475 -0.9396  0.6473
  355PA    H11R15830   1.769   8.193   3.285  0.3424 -0.0408 -1.7123
  355PA    H11S15831   1.682   8.347   3.311 -0.4098 -0.3042  3.1203
  355PA    C11015832   1.888   8.378   3.264 -0.0640  0.5792  0.3891
  355PA    H10R15833   1.878   8.481   3.301 -3.4523  0.4368  0.1912
  355PA    H10S15834   1.985   8.339   3.293 -0.3219 -0.5709 -0.2343
  355PA     C1915835   1.888   8.387   3.110 -0.2397 -0.7621 -0.0722
  355PA     H9R15836   1.812   8.448   3.061  2.0743  1.4736 -1.1280
  355PA     H9S15837   1.977   8.441   3.074 -1.0470 -0.6060 -1.9468
  355PA     C1815838   1.886   8.243   3.048  0.5360  0.2183 -0.1282
  355PA     H8R15839   1.966   8.181   3.089  0.8245  1.4731  1.2698
  355PA     H8S15840   1.786   8.202   3.068 -0.4515  1.9613 -1.2634
  355PA     C1715841   1.903   8.255   2.898  0.1886  0.0001 -0.0580
  355PA     H7R15842   1.987   8.318   2.866 -0.2381  0.2819 -0.6565
  355PA     H7S15843   1.927   8.155   2.863 -1.5161 -1.1675  1.8975
  355PA     C1615844   1.781   8.310   2.819  0.5114 -0.1348 -0.0563
  355PA     H6R15845   1.691   8.251   2.840  1.5466 -1.7914 -0.0606
  355PA     H6S15846   1.760   8.412   2.852 -0.7987 -0.1041 -0.9340
  355PA     C1515847   1.806   8.305   2.664 -0.2519  0.0175  0.1618
  355PA     H5R15848   1.908   8.338   2.641  0.4712 -0.9036  1.8465
  355PA     H5S15849   1.799   8.202   2.629 -0.6225  0.4198 -0.9909
  355PA     C1415850   1.693   8.369   2.582  0.3108 -0.7891 -0.4528
  355PA     H4R15851   1.601   8.315   2.605  0.9744 -1.6938  0.1488
  355PA     H4S15852   1.673   8.471   2.616  2.6436  0.5347 -2.7230
  355PA     C1315853   1.727   8.369   2.433 -0.0876 -0.2138  0.3806
  355PA     H3R15854   1.825   8.410   2.412  0.0575 -0.5270  0.4342
  355PA     H3S15855   1.736   8.264   2.403 -0.3077  0.5646 -2.7625
  355PA     C1215856   1.616   8.424   2.344 -0.0071 -0.8697  0.4537
  355PA     H2R15857   1.595   8.362   2.257  0.1918 -0.3420  0.0192
  355PA     H2S15858   1.523   8.434   2.401 -0.7111  0.1976 -0.8334
  356PC     C1115859   1.658   8.559   2.280 -0.0721  0.3059  0.4247
  356PC     O1215860   1.646   8.664   2.336 -0.3306  0.3183  0.1825
  356PC     O1115861   1.714   8.541   2.157  0.6830 -0.4249  0.2717
  356PC      C115862   1.756   8.659   2.077 -0.3424 -0.7883 -0.1760
  356PC      HR15863   1.730   8.648   1.972 -0.7324  2.0366 -0.4547
  356PC      HS15864   1.707   8.754   2.097  0.0010 -0.7527  0.5263
  356PC      C215865   1.914   8.677   2.086  0.1744 -0.2711 -0.0045
  356PC      HX15866   1.928   8.782   2.057 -0.8625 -0.0942  0.1106
  356PC      C315867   2.000   8.590   1.994  0.2756 -0.1073  0.4705
  356PC      HA15868   2.086   8.549   2.049 -0.7367 -1.1654  1.3085
  356PC      HB15869   1.935   8.508   1.962  0.8140  0.3182 -1.9074
  356PC     O3115870   2.044   8.671   1.876 -0.0603 -0.5076 -0.0077
  356PC     P3115871   1.954   8.677   1.750 -0.0427 -0.1514  0.2739
  356PC     O3215872   2.049   8.747   1.634 -0.0492 -0.5161 -0.6486
  356PC     C3115873   2.082   8.889   1.640 -0.3335  0.1006  0.3522
  356PC     H1A15874   2.002   8.941   1.693 -3.3913 -0.4954 -3.3056
  356PC     H1B15875   2.183   8.898   1.683  1.0527 -1.4328 -2.3323
  356PC     C3215876   2.081   8.931   1.488 -0.3333  0.1832 -0.4698
  356PC     H2A15877   2.124   9.031   1.481 -2.5420  1.3079  0.8096
  356PC     H2B15878   2.143   8.860   1.433 -1.4085 -2.3434  1.4079
  356PC     N3115879   1.956   8.936   1.415 -0.4724  0.7673  0.2342
  356PC     C3315880   1.919   8.791   1.379  0.2589 -0.0790  0.2357
  356PC     H3A15881   1.907   8.733   1.471  0.8508 -0.1007  0.3076
  356PC     H3B15882   1.824   8.790   1.325 -0.2322 -2.0607  1.0513
  356PC     H3C15883   2.001   8.749   1.321  0.7853  1.3343 -0.0824
  356PC     C3415884   1.843   8.997   1.492  0.5555 -0.2221 -0.2343
  356PC     H4A15885   1.794   8.925   1.558  2.4652 -2.0184 -0.6700
  356PC     H4B15886   1.884   9.077   1.554  1.8133 -0.0623 -1.2128
  356PC     H4C15887   1.771   9.034   1.419 -0.3536 -0.1133  0.7030
  356PC     C3515888   1.984   9.019   1.299  0.5490 -0.1109  0.2532
  356PC     H5A15889   1.908   8.992   1.225  0.4199 -4.6921  1.7233
  356PC     H5B15890   2.083   9.001   1.256 -0.1283  0.8867 -1.8758
  356PC     H5C15891   1.975   9.122   1.334  1.4965  0.0970 -0.0814
  356PC     O3315892   1.923   8.540   1.708  0.0243 -0.2003  0.2386
  356PC     O3415893   1.836   8.771   1.768 -0.0823  0.4126 -0.5322
  356PC     O2115894   1.967   8.683   2.224 -0.2220  0.0092 -0.0564
  356PC     C2115895   1.917   8.790   2.294 -0.3044 -0.3609 -0.1299
  356PC     O2215896   1.837   8.876   2.258 -0.9134 -0.4994 -0.5342
  357OL     C1215897   1.973   8.792   2.432  0.3769  1.1363 -0.1295
  357OL     H2R15898   1.978   8.898   2.458 -1.0544  1.3174 -0.5216
  357OL     H2S15899   2.072   8.746   2.441 -0.8652 -1.6581  0.1322
  357OL     C1315900   1.877   8.731   2.536 -0.5814  0.1343 -0.4420
  357OL     H3R15901   1.862   8.632   2.493 -2.8236  0.4800 -0.5926
  357OL     H3S15902   1.778   8.777   2.529 -0.7912  0.1532  1.8388
  357OL     C1415903   1.937   8.720   2.679  0.0953  0.5342 -0.2717
  357OL     H4R15904   2.033   8.667   2.676 -0.0586  0.1853  0.6758
  357OL     H4S15905   1.883   8.650   2.743 -0.7503  3.4570  2.4737
  357OL     C1515906   1.944   8.860   2.745  0.3098  0.0565 -0.3527
  357OL     H5R15907   1.853   8.917   2.729  0.4242  0.7659  1.2261
  357OL     H5S15908   2.022   8.921   2.701 -1.7121  3.5625  0.5496
  357OL     C1615909   1.978   8.863   2.893 -0.2996 -0.2477  0.6419
  357OL     H6R15910   2.066   8.801   2.912  0.3640  0.0080 -1.3306
  357OL     H6S15911   1.910   8.805   2.956  1.1592 -0.4515  2.1062
  357OL     C1715912   1.990   9.006   2.953  0.0212 -0.0725 -0.1103
  357OL     H7R15913   1.889   9.046   2.942  1.0106  2.5920 -0.2636
  357OL     H7S15914   2.050   9.068   2.887 -1.0291  1.7968  0.6275
  357OL     C1815915   2.044   9.021   3.097 -0.1502  0.2494 -0.0022
  357OL     H8R15916   2.129   8.953   3.108  0.1929 -0.3245 -4.3133
  357OL     H8S15917   1.970   8.996   3.174  0.2763  0.2360  0.4028
  357OL     C1915918   2.086   9.161   3.127 -0.0808 -0.2741 -0.1193
  357OL     H9R15919   2.013   9.234   3.091  2.1897  1.6847 -1.0330
  357OL    C11015920   2.198   9.214   3.189 -0.6729  0.0386  0.0648
  357OL    H10R15921   2.204   9.322   3.182 -1.2216  0.0360 -0.6556
  357OL    C11115922   2.321   9.135   3.236  0.1890 -0.3789  0.6685
  357OL    H11R15923   2.406   9.171   3.178  0.0436  0.4040  0.9203
  357OL    H11S15924   2.311   9.027   3.223  0.7617 -0.2110 -1.5502
  357OL    C11215925   2.334   9.161   3.381 -0.4855 -0.9823 -0.0950
  357OL    H12R15926   2.234   9.167   3.424  0.0102  0.3160  0.9287
  357OL    H12S15927   2.378   9.260   3.391  1.2519 -1.4286 -2.4494
  357OL    C11315928   2.427   9.072   3.460  0.2513  0.4597  0.1552
  357OL    H13R15929   2.526   9.077   3.414  0.4502  4.3178  0.6852
  357OL    H13S15930   2.396   8.967   3.456 -0.4671  0.6620 -3.1044
  357OL    C11415931   2.453   9.103   3.608 -0.8220 -0.7071  0.4283
  357OL    H14R15932   2.357   9.099   3.660 -0.3518  1.4909  1.5742
  357OL    H14S15933   2.499   9.202   3.618  3.3514 -2.5593  1.3589
  357OL    C11515934   2.556   9.014   3.681  0.1167 -0.1753  0.0049
  357OL    H15R15935   2.642   9.023   3.615 -0.0129  0.7419 -0.0462
  357OL    H15S15936   2.519   8.911   3.686 -0.0216 -0.1615 -0.6954
  357OL    C11615937   2.583   9.068   3.826  0.1890  0.0866  0.6512
  357OL    H16R15938   2.488   9.078   3.878 -1.2727 -3.1386 -1.1123
  357OL    H16S15939   2.628   9.168   3.819  0.7683 -0.2552 -1.0713
  357OL    C11715940   2.661   8.975   3.927 -0.0382 -0.1493  0.2026
  357OL    H17R15941   2.614   8.876   3.921  0.3685 -0.4393  1.4893
  357OL    H17S15942   2.648   9.018   4.026 -0.7024 -0.6341  0.3315
  357OL    C11815943   2.808   8.960   3.889 -0.3492  0.7927 -0.3395
  357OL    H18R15944   2.862   8.895   3.958  1.1913 -1.4242 -3.4207
  357OL    H18S15945   2.864   9.053   3.886 -1.7025  1.8895  3.0735
  357OL    H18T15946   2.822   8.904   3.797 -0.9259 -0.7368  0.4627
  358PA    C11615947   0.916   5.058   3.167  0.3028 -0.0477 -0.2878
  358PA    H16R15948   0.948   5.101   3.262 -0.3060  0.5115 -0.3274
  358PA    H16S15949   0.910   4.949   3.166  3.5497 -0.3625 -2.7776
  358PA    H16T15950   0.819   5.108   3.164  0.5303  0.4535  0.3375
  358PA    C11515951   1.004   5.104   3.052  0.1600  0.0799 -0.4483
  358PA    H15R15952   1.103   5.057   3.061  0.1942  0.0751 -0.8264
  358PA    H15S15953   0.960   5.068   2.959 -1.3016 -1.6811  0.8643
  358PA    C11415954   1.025   5.259   3.056 -0.4808 -0.2479 -0.2493
  358PA    H14R15955   1.093   5.276   3.140  1.1870 -1.4082 -1.2992
  358PA    H14S15956   1.073   5.300   2.966  0.0490  1.3087  0.7033
  358PA    C11315957   0.897   5.343   3.070 -0.2056 -0.2425  0.2593
  358PA    H13R15958   0.813   5.304   3.012 -1.5023  0.6069  1.5003
  358PA    H13S15959   0.869   5.350   3.176  1.3644 -1.4145  0.8034
  358PA    C11215960   0.931   5.485   3.023 -0.4558 -0.2824 -0.2074
  358PA    H12R15961   1.036   5.510   3.039  0.0001 -3.1313  1.9876
  358PA    H12S15962   0.893   5.501   2.922  0.2741 -1.1953 -0.6305
  358PA    C11115963   0.858   5.591   3.105 -0.3674 -0.4509 -0.6977
  358PA    H11R15964   0.759   5.611   3.064 -0.2590 -0.4029 -0.9346
  358PA    H11S15965   0.854   5.563   3.211 -0.5162 -1.1679 -0.8829
  358PA    C11015966   0.927   5.730   3.107 -0.1952  0.0322 -0.2594
  358PA    H10R15967   0.871   5.802   3.168 -0.1103 -0.3129  0.2365
  358PA    H10S15968   1.024   5.731   3.157 -0.5449  0.0582  0.4372
  358PA     C1915969   0.948   5.792   2.964  0.1825 -0.0635  0.2797
  358PA     H9R15970   0.993   5.709   2.909 -0.6254 -0.9631  0.9406
  358PA     H9S15971   0.858   5.828   2.914  2.0141  2.1762 -1.6163
  358PA     C1815972   1.050   5.910   2.967  0.2426  0.4327  0.6514
  358PA     H8R15973   0.991   5.996   3.000 -0.9136 -0.5153  1.1442
  358PA     H8S15974   1.135   5.894   3.034 -0.8647  2.2850  2.6280
  358PA     C1715975   1.100   5.947   2.824  0.6790  0.7067 -0.6322
  358PA     H7R15976   1.010   5.950   2.762  0.5876  0.5135 -0.5113
  358PA     H7S15977   1.141   6.047   2.813 -3.1144  2.3075 -1.9947
  358PA     C1615978   1.196   5.852   2.755 -0.1249  0.7724 -0.3415
  358PA     H6R15979   1.287   5.831   2.812  0.2038 -0.0130 -1.1302
  358PA     H6S15980   1.147   5.755   2.754  1.1754  0.0920  0.1044
  358PA     C1515981   1.228   5.889   2.606 -0.1391  0.0747 -0.1339
  358PA     H5R15982   1.320   5.830   2.597 -0.9178 -1.0341 -1.1070
  358PA     H5S15983   1.154   5.846   2.537  1.8312 -1.0001 -1.6991
  358PA     C1415984   1.270   6.022   2.571 -0.1067 -0.7894 -0.3675
  358PA     H4R15985   1.197   6.095   2.607 -2.1971 -2.2387 -1.4092
  358PA     H4S15986   1.363   6.048   2.622  1.1785  0.9275 -3.3263
  358PA     C1315987   1.300   6.045   2.427  0.0966 -0.2176  0.2252
  358PA     H3R15988   1.366   5.964   2.395  1.4767  0.7812  0.4746
  358PA     H3S15989   1.208   6.033   2.370  1.1617 -0.3796 -1.5371
  358PA     C1215990   1.374   6.180   2.398  0.7063 -0.2911  0.5298
  358PA     H2R15991   1.304   6.263   2.401  0.8385 -0.1388 -0.4013
  358PA     H2S15992   1.453   6.199   2.471  0.9686 -0.7406  0.3671
  359PC     C1115993   1.425   6.188   2.253  0.2245  0.0202 -0.2160
  359PC     O1215994   1.374   6.134   2.154 -0.7827 -0.0077 -0.5751
  359PC     O1115995   1.535   6.264   2.250  0.0243  0.0454  0.2710
  359PC      C115996   1.597   6.289   2.121  0.2115  0.4338  0.0014
  359PC      HR15997   1.703   6.314   2.135  0.7383 -0.6444 -1.8182
  359PC      HS15998   1.605   6.194   2.069  1.6977  1.3211 -1.4897
  359PC      C215999   1.530   6.402   2.048  0.2076  0.0539 -0.8339
  359PC      HX16000   1.430   6.363   2.028  0.4042 -2.2413  2.0181
  359PC      C316001   1.597   6.451   1.921 -0.1376  0.3642 -0.4719
  359PC      HA16002   1.527   6.517   1.869  0.5411  1.6770  0.2426
  359PC      HB16003   1.680   6.516   1.948 -1.0232  0.3500  2.6783
  359PC     O3116004   1.635   6.337   1.843  0.3456 -0.2690  0.4405
  359PC     P3116005   1.561   6.288   1.710  0.7622  0.0257  0.4339
  359PC     O3216006   1.422   6.219   1.769  0.2518  0.2093  0.5471
  359PC     C3116007   1.427   6.079   1.815 -0.0387  0.6607 -0.0363
  359PC     H1A16008   1.529   6.057   1.848 -0.9686 -0.2174  2.4901
  359PC     H1B16009   1.359   6.065   1.899  0.6718 -0.8420  0.3188
  359PC     C3216010   1.388   5.995   1.700 -0.0813  0.2053 -0.4287
  359PC     H2A16011   1.446   6.029   1.614 -0.8751  1.9144 -0.3277
  359PC     H2B16012   1.416   5.891   1.720 -2.6242 -1.0120 -2.4502
  359PC     N3116013   1.242   5.993   1.651 -0.1467  0.8395 -0.3906
  359PC     C3316014   1.222   5.872   1.557  0.0936 -0.3908  0.2985
  359PC     H3A16015   1.228   5.777   1.609 -0.5569 -0.7151 -0.2049
  359PC     H3B16016   1.124   5.879   1.511  0.4022 -0.6788 -0.4178
  359PC     H3C16017   1.295   5.889   1.477 -0.4974 -1.2060 -0.4277
  359PC     C3416018   1.141   5.974   1.761  0.1153  0.0791 -0.2121
  359PC     H4A16019   1.123   6.067   1.814  1.9210  1.3050 -1.6171
  359PC     H4B16020   1.047   5.944   1.715  2.2044 -1.5694 -3.8423
  359PC     H4C16021   1.165   5.896   1.833 -2.0990 -0.1324  0.3750
  359PC     C3516022   1.212   6.123   1.591  0.4750  0.2412 -0.4746
  359PC     H5A16023   1.115   6.108   1.544  0.2540  1.8400 -0.5665
  359PC     H5B16024   1.274   6.138   1.502  0.8457 -2.5382 -0.7921
  359PC     H5C16025   1.210   6.203   1.665  0.2893  0.8241 -1.0999
  359PC     O3316026   1.538   6.413   1.630 -0.6168  0.1343 -0.3051
  359PC     O3416027   1.660   6.197   1.658 -0.1845  0.0003  0.5656
  359PC     O2116028   1.518   6.509   2.148  0.4457  0.1123 -0.0403
  359PC     C2116029   1.429   6.608   2.133  1.0431  0.1942 -0.2490
  359PC     O2216030   1.344   6.605   2.050  0.4681 -0.4955 -0.8141
  360OL     C1216031   1.445   6.724   2.226  0.8112  0.3294 -0.2760
  360OL     H2R16032   1.442   6.817   2.169 -0.4404  1.2065  1.1658
  360OL     H2S16033   1.549   6.724   2.257  0.4602  2.0806  1.0512
  360OL     C1316034   1.356   6.728   2.357  0.1216 -0.1653  0.8942
  360OL     H3R16035   1.252   6.745   2.329 -0.5334 -0.0833  3.2385
  360OL     H3S16036   1.394   6.810   2.418 -1.2641 -0.0612  1.6683
  360OL     C1416037   1.355   6.586   2.432  0.1282 -0.9070 -0.3330
  360OL     H4R16038   1.462   6.563   2.443  0.8312  1.4886 -1.5175
  360OL     H4S16039   1.306   6.514   2.366 -0.6333 -0.4445 -0.2800
  360OL     C1516040   1.284   6.574   2.561 -0.5121 -0.1438  0.8756
  360OL     H5R16041   1.315   6.482   2.610 -1.8326 -0.5334  1.0163
  360OL     H5S16042   1.180   6.562   2.532 -0.5111 -0.1041  0.8548
  360OL     C1616043   1.304   6.684   2.668  0.3791 -0.5551 -0.3222
  360OL     H6R16044   1.283   6.776   2.614  0.8286 -1.2036 -1.6562
  360OL     H6S16045   1.408   6.701   2.698 -0.3958  2.0060  1.1729
  360OL     C1716046   1.196   6.682   2.780  0.3097  0.7463  0.1206
  360OL     H7R16047   1.096   6.676   2.737  0.1683  1.3816  0.3541
  360OL     H7S16048   1.205   6.775   2.836  1.4347  0.8376 -0.1800
  360OL     C1816049   1.212   6.568   2.882  0.7736 -0.4958 -0.1408
  360OL     H8R16050   1.163   6.474   2.857 -0.8114  0.7871 -2.0795
  360OL     H8S16051   1.160   6.602   2.971 -0.6083 -0.1589 -1.0470
  360OL     C1916052   1.357   6.543   2.916 -0.1741  0.1081 -0.2363
  360OL     H9R16053   1.415   6.628   2.954  0.6266 -0.5458  0.0361
  360OL    C11016054   1.431   6.433   2.884 -0.7969  0.5850  0.0663
  360OL    H10R16055   1.538   6.425   2.902 -0.8946 -0.4964  0.2909
  360OL    C11116056   1.389   6.296   2.835  0.3938 -0.0542 -0.0949
  360OL    H11R16057   1.449   6.277   2.746  1.2332  2.0919 -0.0521
  360OL    H11S16058   1.283   6.291   2.808 -0.2396  0.7620  2.0154
  360OL    C11216059   1.414   6.187   2.940 -0.4106 -0.2622  0.0128
  360OL    H12R16060   1.523   6.188   2.947 -0.3558 -0.2334 -0.7659
  360OL    H12S16061   1.382   6.091   2.900 -1.0385 -0.1368  0.1978
  360OL    C11316062   1.335   6.202   3.072  0.1585 -0.0818 -0.3937
  360OL    H13R16063   1.231   6.204   3.040  0.7918 -1.1072 -2.7272
  360OL    H13S16064   1.359   6.293   3.127  1.3971 -0.0816 -0.9045
  360OL    C11416065   1.375   6.082   3.162  0.4765  0.1258 -0.0711
  360OL    H14R16066   1.484   6.085   3.168  0.4825  2.6515 -0.6921
  360OL    H14S16067   1.351   5.990   3.108 -0.2572  1.3594 -1.9234
  360OL    C11516068   1.304   6.077   3.300  0.1241 -0.4354  0.4738
  360OL    H15R16069   1.201   6.110   3.285  0.7049  1.2347 -0.0675
  360OL    H15S16070   1.354   6.152   3.361 -0.1137  0.1605 -0.0529
  360OL    C11616071   1.304   5.931   3.359 -0.1361 -0.2400 -0.1568
  360OL    H16R16072   1.409   5.908   3.379 -0.2700 -0.3676  0.3981
  360OL    H16S16073   1.262   5.866   3.282  2.6340 -1.8164 -0.4748
  360OL    C11716074   1.230   5.923   3.493 -0.1424  0.2114 -0.5050
  360OL    H17R16075   1.281   5.997   3.555 -2.1125  0.7285  0.5776
  360OL    H17S16076   1.248   5.830   3.547  2.1455  1.7876  1.6539
  360OL    C11816077   1.083   5.960   3.498 -0.0243  0.1844  0.1195
  360OL    H18R16078   1.061   6.065   3.480  0.6975  0.3640  0.2701
  360OL    H18S16079   1.043   5.933   3.596 -2.3491  1.1261 -0.4982
  360OL    H18T16080   1.029   5.900   3.424  0.4406  0.4590 -0.4509
  361PA    C11616081   6.813   3.673   3.510 -0.3169 -0.9217 -0.0629
  361PA    H16R16082   6.855   3.600   3.441  1.0323 -1.6590  1.4723
  361PA    H16S16083   6.795   3.764   3.453 -1.0648  0.1539  1.7876
  361PA    H16T16084   6.722   3.639   3.561 -0.4924  0.7263  0.7909
  361PA    C11516085   6.914   3.719   3.615  0.1079 -0.5427 -0.2072
  361PA    H15R16086   6.865   3.730   3.712  2.1105  0.1846  0.7790
  361PA    H15S16087   6.984   3.636   3.630  0.8741  0.3708  1.5742
  361PA    C11416088   7.002   3.837   3.560  0.5979  0.5875 -0.7626
  361PA    H14R16089   7.097   3.830   3.613  0.9736 -1.8947 -1.6414
  361PA    H14S16090   7.015   3.819   3.453 -0.8737  0.8530 -1.0087
  361PA    C11316091   6.934   3.977   3.565 -0.3977  0.3174 -0.3060
  361PA    H13R16092   6.834   3.970   3.520 -0.6634  1.7245  0.0201
  361PA    H13S16093   6.905   3.993   3.669  1.3604  2.0979 -0.0417
  361PA    C11216094   7.017   4.093   3.511  0.4920 -0.6557 -0.2463
  361PA    H12R16095   6.960   4.182   3.537  0.6900 -1.2928  2.5956
  361PA    H12S16096   7.115   4.097   3.558  0.7960  0.3301 -0.9304
  361PA    C11116097   7.031   4.091   3.360 -0.1432 -0.6630  1.4114
  361PA    H11R16098   7.111   4.159   3.330  0.7310 -1.0457  2.7461
  361PA    H11S16099   7.063   3.992   3.328 -0.7674 -0.4347  0.0166
  361PA    C11016100   6.899   4.135   3.291  0.3085  0.4619 -0.2627
  361PA    H10R16101   6.822   4.066   3.328  0.2685 -0.4415 -1.9322
  361PA    H10S16102   6.861   4.231   3.326  0.6697  0.9404 -1.1424
  361PA     C1916103   6.902   4.124   3.134 -0.7239 -0.4485 -0.1561
  361PA     H9R16104   6.993   4.167   3.090 -1.3213  1.2768  0.2388
  361PA     H9S16105   6.900   4.022   3.095  0.4112 -0.2988 -0.6589
  361PA     C1816106   6.792   4.213   3.067  1.1686  0.3012 -1.5997
  361PA     H8R16107   6.694   4.189   3.109  2.4827  0.1702  1.6277
  361PA     H8S16108   6.812   4.314   3.105  2.5312 -0.8342  0.9305
  361PA     C1716109   6.801   4.211   2.917  0.5660 -0.1847 -0.2134
  361PA     H7R16110   6.899   4.244   2.881 -0.3809  2.4158 -0.6358
  361PA     H7S16111   6.794   4.110   2.877 -0.4797 -0.1698 -0.0889
  361PA     C1616112   6.694   4.296   2.848  0.0996 -0.6300  0.0719
  361PA     H6R16113   6.595   4.260   2.874 -0.5566  1.1958  0.2565
  361PA     H6S16114   6.710   4.402   2.868  0.5809 -0.7151  0.1723
  361PA     C1516115   6.707   4.279   2.697  0.0746 -0.4827  0.5839
  361PA     H5R16116   6.809   4.291   2.660  0.4625 -2.1530  1.0566
  361PA     H5S16117   6.686   4.174   2.677  0.5204 -0.0409 -2.8817
  361PA     C1416118   6.599   4.365   2.622  0.2302 -0.2927 -0.3318
  361PA     H4R16119   6.500   4.322   2.636 -0.0781 -0.1544 -1.9213
  361PA     H4S16120   6.612   4.465   2.661  4.3450 -0.5819 -0.4936
  361PA     C1316121   6.628   4.378   2.476  0.1771 -0.2871  0.2228
  361PA     H3R16122   6.723   4.431   2.467  0.3735 -0.8618 -1.3295
  361PA     H3S16123   6.629   4.282   2.424  0.7619  0.4745 -1.2199
  361PA     C1216124   6.525   4.460   2.401  0.1695 -0.6918  0.1344
  361PA     H2R16125   6.424   4.428   2.428 -0.1363 -1.0310 -1.3276
  361PA     H2S16126   6.526   4.564   2.435 -1.3653  0.3944 -2.7447
  362PC     C1116127   6.546   4.459   2.250  0.4076  0.8160  0.4711
  362PC     O1216128   6.640   4.500   2.190 -0.0476  0.0255 -0.7845
  362PC     O1116129   6.444   4.407   2.183 -0.4194  0.7824 -0.2131
  362PC      C116130   6.463   4.387   2.035 -0.3517  0.6125  0.5019
  362PC      HR16131   6.370   4.390   1.976 -1.0248 -1.0579  1.4086
  362PC      HS16132   6.526   4.470   2.003 -0.9803  1.3678  1.1786
  362PC      C216133   6.534   4.254   2.010  0.3350  0.2914  0.0228
  362PC      HX16134   6.626   4.237   2.065  0.6258 -0.7659 -0.7690
  362PC      C316135   6.567   4.226   1.860  0.3923 -0.5504  0.0886
  362PC      HA16136   6.631   4.309   1.828  0.8678 -1.4670 -1.4615
  362PC      HB16137   6.619   4.131   1.842  1.6002  0.0841  0.1362
  362PC     O3116138   6.454   4.240   1.773 -0.4522 -0.2009  0.8490
  362PC     P3116139   6.462   4.207   1.621 -0.3137 -0.0859 -0.0127
  362PC     O3216140   6.549   4.326   1.555  0.6712 -0.4741  0.4840
  362PC     C3116141   6.513   4.460   1.575  0.0321 -0.1517  0.3067
  362PC     H1A16142   6.416   4.481   1.532  1.0400  0.6074 -1.7316
  362PC     H1B16143   6.505   4.476   1.683  4.0456 -0.3350  0.8196
  362PC     C3216144   6.630   4.539   1.523  0.1553 -0.0098 -0.2527
  362PC     H2A16145   6.616   4.641   1.558  0.3156  0.1133 -0.5477
  362PC     H2B16146   6.722   4.504   1.571  0.5102  1.1564 -0.0589
  362PC     N3116147   6.656   4.554   1.377 -0.5366  0.7177  0.1494
  362PC     C3316148   6.685   4.426   1.304 -0.3909  0.5463 -1.2369
  362PC     H3A16149   6.697   4.455   1.200  1.5447  0.1949 -1.1583
  362PC     H3B16150   6.773   4.376   1.344 -0.9949 -0.8567 -1.6041
  362PC     H3C16151   6.602   4.356   1.312 -0.4021  0.6766  0.1047
  362PC     C3416152   6.543   4.628   1.308  0.5829  0.3095 -0.2627
  362PC     H4A16153   6.463   4.555   1.295  1.7530 -1.2059  0.6042
  362PC     H4B16154   6.524   4.703   1.384  1.8777  0.0977  0.3078
  362PC     H4C16155   6.579   4.676   1.216 -1.6436  1.5182 -0.5647
  362PC     C3516156   6.777   4.640   1.345  0.5898 -0.8530  0.2141
  362PC     H5A16157   6.796   4.637   1.238  2.3632  0.1167  0.4802
  362PC     H5B16158   6.868   4.599   1.389  0.8104 -0.0547  0.5127
  362PC     H5C16159   6.755   4.742   1.375 -1.0180 -1.3213  0.7683
  362PC     O3316160   6.535   4.080   1.613  0.3951  0.0218  0.3715
  362PC     O3416161   6.322   4.217   1.572  0.3703  0.0642  0.0788
  362PC     O2116162   6.440   4.148   2.053 -0.0682  0.1906  0.2588
  362PC     C2116163   6.482   4.057   2.145 -0.0393 -0.3569  0.3409
  362PC     O2216164   6.595   4.059   2.196 -0.0519 -0.1321  0.3347
  363OL     C1216165   6.385   3.945   2.169 -0.0229 -1.0139 -0.0360
  363OL     H2R16166   6.399   3.864   2.097  1.1562 -0.8638  0.0177
  363OL     H2S16167   6.286   3.989   2.159  0.4899  0.2783  0.4286
  363OL     C1316168   6.387   3.883   2.314 -0.5293  0.2025 -0.7703
  363OL     H3R16169   6.488   3.844   2.330 -0.5601  0.5857  0.5082
  363OL     H3S16170   6.308   3.808   2.320 -1.9485  1.7525  1.9411
  363OL     C1416171   6.358   3.988   2.428  0.0493 -0.7286 -0.0741
  363OL     H4R16172   6.250   4.004   2.429  0.0810 -0.4052 -0.9061
  363OL     H4S16173   6.402   4.086   2.407 -1.4654 -0.0409 -0.1631
  363OL     C1516174   6.415   3.937   2.561  0.0503  0.2930 -0.6672
  363OL     H5R16175   6.522   3.960   2.560  0.2022  0.1720  2.5712
  363OL     H5S16176   6.403   3.829   2.574  0.9665  0.0387 -1.7888
  363OL     C1616177   6.360   4.004   2.684  0.6656  0.1302  0.3649
  363OL     H6R16178   6.256   3.971   2.691  1.1997 -1.4238  1.6855
  363OL     H6S16179   6.366   4.112   2.673  0.4203  0.1507  0.4285
  363OL     C1716180   6.425   3.957   2.813  0.1788  0.2530  0.0579
  363OL     H7R16181   6.523   4.007   2.811 -0.4960  1.6074 -1.2682
  363OL     H7S16182   6.436   3.849   2.802 -2.2854 -0.0493  0.0566
  363OL     C1816183   6.349   3.980   2.940 -0.6021 -0.1176  1.2278
  363OL     H8R16184   6.258   3.919   2.947 -1.5705  0.9482 -1.0486
  363OL     H8S16185   6.300   4.078   2.941 -1.1609 -0.3784  0.5867
  363OL     C1916186   6.443   3.975   3.060 -0.1768 -0.6196 -0.2708
  363OL     H9R16187   6.542   3.945   3.029  0.5504 -0.1523  1.4888
  363OL    C11016188   6.411   3.993   3.187  0.3272 -0.1279 -0.3462
  363OL    H10R16189   6.489   3.973   3.259  1.0427  3.1420 -0.0577
  363OL    C11116190   6.277   4.024   3.248  1.1932 -0.0786  0.5923
  363OL    H11R16191   6.208   3.939   3.248  0.0560  0.8129 -0.2676
  363OL    H11S16192   6.227   4.102   3.191 -0.5620 -0.3558  1.6828
  363OL    C11216193   6.294   4.076   3.392  0.2060  0.1407  0.7380
  363OL    H12R16194   6.358   4.164   3.386  0.1684  0.2532  1.7605
  363OL    H12S16195   6.347   3.999   3.449 -1.3718 -0.3642  1.5754
  363OL    C11316196   6.161   4.117   3.467  0.0375  0.1506  0.5615
  363OL    H13R16197   6.096   4.171   3.397 -1.0398  1.7147  2.6796
  363OL    H13S16198   6.177   4.193   3.542 -0.1117  1.6522 -0.8708
  363OL    C11416199   6.081   3.995   3.529  0.6461  0.0013 -0.2998
  363OL    H14R16200   6.139   3.956   3.613  1.3816 -0.8986 -1.2018
  363OL    H14S16201   6.063   3.918   3.454 -0.7210  0.8675 -0.8914
  363OL    C11516202   5.939   4.042   3.575 -0.9219  0.5041  1.1164
  363OL    H15R16203   5.903   4.103   3.492  2.3256  0.2432 -0.6392
  363OL    H15S16204   5.949   4.111   3.659  3.2695 -0.0946  1.3241
  363OL    C11616205   5.863   3.923   3.622  0.3004  0.3561  0.3339
  363OL    H16R16206   5.919   3.874   3.702 -0.0764  0.6829  0.8036
  363OL    H16S16207   5.863   3.854   3.537  1.2814  0.2599  0.4047
  363OL    C11716208   5.727   3.955   3.688 -0.2943  0.2012  0.2996
  363OL    H17R16209   5.735   4.026   3.771  0.1499  2.3067 -1.4833
  363OL    H17S16210   5.684   3.864   3.731 -1.4969  2.1967  3.7705
  363OL    C11816211   5.621   4.010   3.592  0.2209  0.0632  0.0002
  363OL    H18R16212   5.648   4.115   3.574 -1.3781  0.6752  1.0346
  363OL    H18S16213   5.529   3.991   3.647  1.0385 -1.1755  1.0005
  363OL    H18T16214   5.618   3.958   3.496  1.7553 -0.5033  0.2157
  364PA    C11616215   1.433   1.021   3.816 -0.4992  0.2704  1.1115
  364PA    H16R16216   1.419   0.915   3.838 -2.0584  0.2471  0.1514
  364PA    H16S16217   1.337   1.065   3.844 -0.3130  1.7113 -0.3722
  364PA    H16T16218   1.510   1.047   3.890  0.8793 -0.0288 -0.1858
  364PA    C11516219   1.475   1.060   3.673 -0.5551 -0.4499 -0.0284
  364PA    H15R16220   1.490   1.167   3.684  2.2598 -0.6703 -0.9397
  364PA    H15S16221   1.568   1.014   3.638 -1.5463 -0.7267 -2.5288
  364PA    C11416222   1.369   1.041   3.560  0.1888 -0.3743 -0.2776
  364PA    H14R16223   1.351   0.935   3.539  0.3316 -0.5806  0.5842
  364PA    H14S16224   1.276   1.086   3.592  0.9471  0.8111  0.3318
  364PA    C11316225   1.413   1.122   3.438  0.0163 -0.6895  0.1659
  364PA    H13R16226   1.414   1.229   3.459  1.2790 -1.1058  2.4604
  364PA    H13S16227   1.516   1.093   3.415 -0.0540 -0.8244  0.0141
  364PA    C11216228   1.329   1.078   3.312 -0.3167 -0.2302 -0.5703
  364PA    H12R16229   1.338   0.970   3.314 -1.6152 -0.3510  0.1583
  364PA    H12S16230   1.224   1.110   3.314 -0.1582  0.6411 -2.7564
  364PA    C11116231   1.399   1.137   3.185  0.3157 -0.7208 -0.0855
  364PA    H11R16232   1.424   1.239   3.213 -0.3742 -0.2614 -1.1257
  364PA    H11S16233   1.489   1.076   3.170  0.4882 -0.0875 -1.8772
  364PA    C11016234   1.311   1.135   3.054 -0.5279 -0.1009 -0.0621
  364PA    H10R16235   1.273   1.035   3.032  0.4452 -0.5705  0.3504
  364PA    H10S16236   1.221   1.194   3.071 -0.1926  0.8381 -1.3420
  364PA     C1916237   1.373   1.195   2.924 -0.5569  0.5114  0.6936
  364PA     H9R16238   1.354   1.303   2.933 -2.4735  0.3575 -0.7086
  364PA     H9S16239   1.481   1.186   2.933 -0.4890  0.3219 -0.2602
  364PA     C1816240   1.319   1.145   2.785  0.6276  0.1847  0.1361
  364PA     H8R16241   1.351   1.041   2.779  0.0911  0.0566 -0.6133
  364PA     H8S16242   1.210   1.150   2.784  0.6534  1.1432  0.5547
  364PA     C1716243   1.389   1.237   2.682  0.2764 -0.1569 -0.0321
  364PA     H7R16244   1.337   1.332   2.696 -1.9495 -1.5618  2.1289
  364PA     H7S16245   1.496   1.253   2.695  0.0821 -0.0420  1.6680
  364PA     C1616246   1.370   1.190   2.534  0.1898  0.8133  0.0198
  364PA     H6R16247   1.401   1.086   2.523 -0.5159  0.6388 -0.3912
  364PA     H6S16248   1.262   1.196   2.516  0.5424 -0.2311 -2.9908
  364PA     C1516249   1.436   1.272   2.425 -0.0925  0.5390 -1.0508
  364PA     H5R16250   1.396   1.252   2.325  1.4856 -2.6279 -1.1670
  364PA     H5S16251   1.403   1.374   2.447 -1.4162 -0.2584  0.9024
  364PA     C1416252   1.582   1.275   2.425  0.2783 -0.4069 -0.2489
  364PA     H4R16253   1.616   1.303   2.525 -0.1887  0.1723 -0.2457
  364PA     H4S16254   1.610   1.171   2.412  0.7917 -0.6708  2.4798
  364PA     C1316255   1.637   1.368   2.308  0.4958  0.2804  0.0628
  364PA     H3R16256   1.624   1.322   2.210  0.7299 -3.0615  1.4617
  364PA     H3S16257   1.582   1.462   2.318 -0.4922 -0.1933 -0.8235
  364PA     C1216258   1.785   1.400   2.319  0.2291  0.2804 -0.0609
  364PA     H2R16259   1.813   1.429   2.421  2.6761 -1.7612 -0.0533
  364PA     H2S16260   1.852   1.315   2.302  0.4352 -0.0221  1.9841
  365PC     C1116261   1.822   1.521   2.235 -0.2098  0.5386 -0.3779
  365PC     O1216262   1.881   1.506   2.128  0.4032  0.3244  0.5521
  365PC     O1116263   1.808   1.638   2.301 -0.6629  0.5776  0.8485
  365PC      C116264   1.871   1.753   2.241  0.0533 -0.8496 -0.0835
  365PC      HR16265   1.893   1.828   2.317 -1.1577  0.2160 -0.7452
  365PC      HS16266   1.963   1.719   2.192  0.0643 -4.2213  1.9610
  365PC      C216267   1.782   1.822   2.137  0.1067 -1.0737 -0.3491
  365PC      HX16268   1.761   1.757   2.052 -1.6583  0.8493 -1.4808
  365PC      C316269   1.846   1.955   2.090 -0.1459  0.8236  0.4627
  365PC      HA16270   1.773   2.016   2.037 -1.7367  0.2793  1.9362
  365PC      HB16271   1.874   2.009   2.181  1.5399  0.0311  0.4517
  365PC     O3116272   1.968   1.925   2.015 -0.2353 -0.2134  0.4100
  365PC     P3116273   1.968   1.861   1.864  0.0642  0.5452  0.0200
  365PC     O3216274   1.977   1.705   1.906 -0.3604  0.0788  0.4631
  365PC     C3116275   2.099   1.643   1.950  0.5093  0.2710 -0.2538
  365PC     H1A16276   2.176   1.719   1.964  1.8747 -0.7508 -1.7807
  365PC     H1B16277   2.083   1.605   2.051  0.4105  0.8336 -0.0531
  365PC     C3216278   2.154   1.542   1.845 -0.4195  0.0802 -0.1687
  365PC     H2A16279   2.175   1.603   1.757  1.3354  1.7769  1.3071
  365PC     H2B16280   2.248   1.502   1.883 -0.3005 -1.7950 -2.2729
  365PC     N3116281   2.065   1.423   1.802 -0.9348 -0.3884  0.3982
  365PC     C3316282   2.136   1.344   1.700 -0.8513 -0.1632 -0.0011
  365PC     H3A16283   2.064   1.276   1.656 -2.9223  1.8183  0.1593
  365PC     H3B16284   2.183   1.412   1.629  3.2367  0.1971  2.6992
  365PC     H3C16285   2.226   1.320   1.757 -0.0299  0.4698 -0.9938
  365PC     C3416286   2.036   1.341   1.916  0.2357  0.9079 -0.1715
  365PC     H4A16287   2.125   1.283   1.941  0.9212  1.3499 -1.4893
  365PC     H4B16288   1.993   1.394   2.001 -0.2595  0.3808 -0.0847
  365PC     H4C16289   1.958   1.271   1.885 -0.3766  1.4389  0.1548
  365PC     C3516290   1.942   1.478   1.743  0.1788  0.1004 -0.8005
  365PC     H5A16291   1.973   1.547   1.664  0.0962  0.8502 -0.1855
  365PC     H5B16292   1.879   1.535   1.811 -1.9413  0.5443 -3.0103
  365PC     H5C16293   1.893   1.391   1.698  1.5301 -2.1663  1.7890
  365PC     O3316294   1.836   1.888   1.803 -0.4082  0.2484 -0.2494
  365PC     O3416295   2.091   1.900   1.794  0.0570 -0.2854 -0.0359
  365PC     O2116296   1.655   1.865   2.193  0.2289 -0.5314 -0.4423
  365PC     C2116297   1.543   1.798   2.164 -0.2713  0.4996  0.2162
  365PC     O2216298   1.533   1.711   2.079  0.0468 -0.8563  0.4912
  366OL     C1216299   1.428   1.842   2.246 -0.0026 -0.6893 -0.0512
  366OL     H2R16300   1.339   1.835   2.184  1.0059  0.5851 -1.7220
  366OL     H2S16301   1.436   1.950   2.263 -0.9627 -0.6874  0.4614
  366OL     C1316302   1.406   1.766   2.373 -0.0750  0.4001  0.5713
  366OL     H3R16303   1.394   1.659   2.356  1.9240  0.1893  0.1488
  366OL     H3S16304   1.318   1.800   2.427  0.3817 -0.3055  1.7943
  366OL     C1416305   1.516   1.780   2.482 -0.5297 -0.1017  0.4281
  366OL     H4R16306   1.528   1.882   2.520 -1.7183 -0.1224  0.9076
  366OL     H4S16307   1.609   1.738   2.442 -2.4888 -5.6367  0.8062
  366OL     C1516308   1.479   1.701   2.606  0.0797  0.1318 -0.1771
  366OL     H5R16309   1.430   1.607   2.581 -0.1436  0.3064 -0.3965
  366OL     H5S16310   1.411   1.757   2.670  0.2515  1.2911 -0.9800
  366OL     C1616311   1.609   1.666   2.676  0.0467  0.2080  0.3770
  366OL     H6R16312   1.669   1.756   2.692 -1.5476  1.2420  0.7881
  366OL     H6S16313   1.664   1.597   2.613 -1.3854 -0.1435 -0.5244
  366OL     C1716314   1.566   1.598   2.807  0.3716 -0.2408 -0.1471
  366OL     H7R16315   1.489   1.528   2.773  1.6221 -1.9171  0.2828
  366OL     H7S16316   1.532   1.668   2.884  0.6170 -0.8289  0.5111
  366OL     C1816317   1.677   1.522   2.868  0.4653 -0.1215  0.0678
  366OL     H8R16318   1.759   1.589   2.892 -0.2856 -0.1440  3.0732
  366OL     H8S16319   1.711   1.450   2.794 -1.6772  0.8235 -1.9846
  366OL     C1916320   1.627   1.449   2.990 -0.0644 -0.0044  0.2655
  366OL     H9R16321   1.563   1.365   2.967 -0.5677  0.8107 -1.5226
  366OL    C11016322   1.657   1.462   3.120 -0.1427 -0.0307 -0.0044
  366OL    H10R16323   1.616   1.387   3.188  0.7678  0.0881  0.6890
  366OL    C11116324   1.745   1.573   3.180  0.5082  0.0803 -0.4291
  366OL    H11R16325   1.791   1.644   3.111 -0.1491  2.1146  1.1098
  366OL    H11S16326   1.826   1.527   3.239  0.1927 -0.8157 -0.6772
  366OL    C11216327   1.650   1.654   3.261 -0.4186 -0.2028  0.4470
  366OL    H12R16328   1.578   1.694   3.190  1.1685  1.2732 -0.3863
  366OL    H12S16329   1.710   1.738   3.296  0.1732  0.4480 -1.9874
  366OL    C11316330   1.575   1.591   3.377  0.0111  0.3134  0.6902
  366OL    H13R16331   1.504   1.520   3.335  0.5736  0.4813 -0.5705
  366OL    H13S16332   1.521   1.674   3.423 -0.8042  0.6775 -0.8850
  366OL    C11416333   1.670   1.523   3.478 -0.0602 -0.8953  0.0275
  366OL    H14R16334   1.748   1.596   3.500  0.0343 -0.7434 -0.8083
  366OL    H14S16335   1.714   1.430   3.441  0.7744 -0.0302 -1.2103
  366OL    C11516336   1.586   1.484   3.596 -0.6020 -0.1607 -0.3555
  366OL    H15R16337   1.537   1.389   3.573 -0.1843  0.0986 -2.5233
  366OL    H15S16338   1.502   1.552   3.613 -1.9471 -1.1229 -2.7770
  366OL    C11616339   1.668   1.474   3.727 -0.2907  0.5784 -0.7501
  366OL    H16R16340   1.718   1.568   3.751  0.6787 -0.3323  1.0298
  366OL    H16S16341   1.741   1.394   3.710 -1.7893 -1.3819  1.4620
  366OL    C11716342   1.601   1.432   3.864  0.5694 -0.3778  0.9640
  366OL    H17R16343   1.555   1.336   3.842  0.0344 -0.2039  1.3153
  366OL    H17S16344   1.533   1.509   3.901  1.5311  0.5429  0.8910
  366OL    C11816345   1.718   1.405   3.967  0.0831 -0.8230 -0.6001
  366OL    H18R16346   1.785   1.328   3.927 -0.1701 -1.9591  1.0587
  366OL    H18S16347   1.675   1.365   4.059  1.0275 -0.3087  0.0793
  366OL    H18T16348   1.777   1.492   3.994  0.5881 -1.2796 -0.2175
  367PA    C11616349   4.335   2.044   3.599  0.0655  0.2623  0.4482
  367PA    H16R16350   4.361   1.940   3.618  0.2105  0.2239  0.0548
  367PA    H16S16351   4.230   2.061   3.624 -0.5866 -0.9694 -1.2937
  367PA    H16T16352   4.388   2.108   3.670  0.1470 -0.8822  1.4384
  367PA    C11516353   4.363   2.089   3.451 -0.3629 -0.3428  0.1383
  367PA    H15R16354   4.341   2.196   3.445 -0.7668 -0.4679 -0.8123
  367PA    H15S16355   4.468   2.072   3.428 -0.0065  0.2910  1.1940
  367PA    C11416356   4.271   2.014   3.355 -0.6411 -0.6946  0.2799
  367PA    H14R16357   4.177   2.069   3.352  0.2100  0.8284  0.3406
  367PA    H14S16358   4.320   2.022   3.258  2.5689 -2.2498  1.6101
  367PA    C11316359   4.247   1.866   3.387  0.0877  0.3676  0.0827
  367PA    H13R16360   4.341   1.809   3.391  0.2206  0.4799 -1.0923
  367PA    H13S16361   4.217   1.855   3.491 -0.8079 -0.7209 -0.2681
  367PA    C11216362   4.144   1.794   3.296 -0.3905 -0.1598 -0.0086
  367PA    H12R16363   4.114   1.697   3.338 -1.5546 -1.6811 -3.9123
  367PA    H12S16364   4.056   1.858   3.288  1.1649  1.9628 -0.8251
  367PA    C11116365   4.200   1.761   3.156 -0.0968 -0.5485  0.0221
  367PA    H11R16366   4.247   1.852   3.119  0.9377 -0.5784  1.1981
  367PA    H11S16367   4.273   1.680   3.157 -0.1077 -0.5579  0.8118
  367PA    C11016368   4.085   1.718   3.062 -0.2063 -0.2167  0.2565
  367PA    H10R16369   4.032   1.638   3.114  0.1719 -1.2066 -0.8259
  367PA    H10S16370   4.028   1.811   3.053  1.3550  0.7495 -0.1085
  367PA     C1916371   4.123   1.676   2.918  0.2975  0.1171  0.4570
  367PA     H9R16372   4.171   1.578   2.918  0.8721  0.3800 -1.0155
  367PA     H9S16373   4.029   1.671   2.862 -0.5895  1.8295  1.7115
  367PA     C1816374   4.219   1.762   2.841 -0.0775  0.2976  0.0125
  367PA     H8R16375   4.314   1.760   2.895 -0.2951  0.8692  0.4246
  367PA     H8S16376   4.220   1.716   2.742 -1.1950  0.5438 -0.1257
  367PA     C1716377   4.167   1.907   2.828 -0.6157  0.0984 -0.3510
  367PA     H7R16378   4.109   1.915   2.736 -0.3615  1.0865 -0.4389
  367PA     H7S16379   4.100   1.929   2.911 -1.2243 -1.5120 -0.3813
  367PA     C1616380   4.273   2.018   2.833 -0.1435 -1.2289  0.8567
  367PA     H6R16381   4.307   2.042   2.933  3.4332  2.4227 -0.9417
  367PA     H6S16382   4.362   1.994   2.774 -0.1861  0.9601 -0.2348
  367PA     C1516383   4.221   2.146   2.769 -0.4222  0.7104  0.1439
  367PA     H5R16384   4.210   2.121   2.664 -0.1214 -1.8983  0.6884
  367PA     H5S16385   4.126   2.168   2.818  0.6590 -0.8072  3.1711
  367PA     C1416386   4.321   2.265   2.789 -0.3990  0.8827  0.3531
  367PA     H4R16387   4.351   2.280   2.893  0.5459  2.2873 -0.0930
  367PA     H4S16388   4.414   2.232   2.743  0.8687  1.1864  2.5377
  367PA     C1316389   4.285   2.414   2.739  0.6796  0.0432 -0.2017
  367PA     H3R16390   4.190   2.444   2.783  0.8747  0.0767  0.1963
  367PA     H3S16391   4.357   2.487   2.777 -1.4460  1.0411  2.2281
  367PA     C1216392   4.262   2.423   2.590 -0.7126 -1.0048 -0.3284
  367PA     H2R16393   4.353   2.381   2.546  1.4730 -0.3815  3.1400
  367PA     H2S16394   4.173   2.365   2.566 -0.9861 -0.5028 -0.5467
  368PC     C1116395   4.254   2.562   2.529  0.7533 -0.0848  0.3773
  368PC     O1216396   4.196   2.654   2.586  0.0848 -0.1857  0.0429
  368PC     O1116397   4.321   2.573   2.410 -0.0122  0.0409 -0.2578
  368PC      C116398   4.349   2.707   2.362  1.0977  0.5270 -0.0215
  368PC      HR16399   4.362   2.696   2.255 -2.8676 -2.9491 -0.4165
  368PC      HS16400   4.261   2.770   2.381  0.3860 -1.1769  3.1314
  368PC      C216401   4.485   2.758   2.417 -0.6486  0.7683  0.0631
  368PC      HX16402   4.517   2.848   2.364  1.9157 -0.3108 -0.3954
  368PC      C316403   4.602   2.663   2.402 -1.0933 -0.1142  0.0639
  368PC      HA16404   4.687   2.712   2.450 -1.4163  0.6211 -0.0998
  368PC      HB16405   4.578   2.575   2.463  0.7515 -0.9370 -0.3486
  368PC     O3116406   4.624   2.633   2.257  0.0177 -0.2020  0.5967
  368PC     P3116407   4.726   2.719   2.177 -0.2080 -0.2546 -0.2257
  368PC     O3216408   4.868   2.644   2.188 -0.2755  0.3140  0.3576
  368PC     C3116409   4.956   2.698   2.288 -0.7512  0.2078  0.0967
  368PC     H1A16410   5.002   2.792   2.257  0.3711 -0.0577  0.8890
  368PC     H1B16411   4.906   2.704   2.386 -2.3667  3.1960 -0.7802
  368PC     C3216412   5.086   2.612   2.297  0.6061 -0.0035  0.2819
  368PC     H2A16413   5.136   2.637   2.390 -1.1349  0.3903  1.1417
  368PC     H2B16414   5.057   2.507   2.303  1.3487 -0.2713 -0.6301
  368PC     N3116415   5.189   2.622   2.184 -0.4293  0.2501 -0.7974
  368PC     C3316416   5.141   2.554   2.063  0.3334 -0.3907  0.0099
  368PC     H3A16417   5.128   2.448   2.085  1.3403 -0.9400 -1.8042
  368PC     H3B16418   5.042   2.594   2.040  0.1253 -0.3730  0.9312
  368PC     H3C16419   5.212   2.575   1.982 -0.2712  1.1447 -0.1495
  368PC     C3416420   5.225   2.763   2.164  0.4903 -0.3183  0.7262
  368PC     H4A16421   5.236   2.810   2.262 -1.0401 -2.3606  1.9730
  368PC     H4B16422   5.318   2.764   2.109  1.3353  0.9754  2.1107
  368PC     H4C16423   5.143   2.815   2.115  2.6275  3.3229  0.6533
  368PC     C3516424   5.315   2.558   2.230  0.9008  0.5094  0.0841
  368PC     H5A16425   5.333   2.598   2.331 -1.8715  1.5958  0.2276
  368PC     H5B16426   5.396   2.586   2.162  1.4512 -2.3569 -0.5705
  368PC     H5C16427   5.295   2.451   2.232  0.5985  0.5541 -0.6383
  368PC     O3316428   4.702   2.713   2.028 -0.1869  0.0712 -0.5817
  368PC     O3416429   4.737   2.853   2.249 -0.4256 -0.1928  0.1225
  368PC     O2116430   4.475   2.781   2.558 -0.4781  0.7160  0.1969
  368PC     C2116431   4.404   2.884   2.601 -0.2105  0.1873 -0.3228
  368PC     O2216432   4.366   2.974   2.526  0.2675  0.3091 -0.1804
  369OL     C1216433   4.355   2.870   2.745 -0.9030  0.1043  0.1935
  369OL     H2R16434   4.359   2.766   2.776 -1.0820 -0.6649 -2.1462
  369OL     H2S16435   4.251   2.902   2.742 -0.9934  0.0044  1.7421
  369OL     C1316436   4.441   2.951   2.842 -0.4682  0.0211  0.1375
  369OL     H3R16437   4.449   3.049   2.793  1.2094  0.0801  0.4595
  369OL     H3S16438   4.545   2.917   2.839 -0.5155 -0.0748 -1.4042
  369OL     C1416439   4.398   2.963   2.994  0.0931 -0.2501  0.8255
  369OL     H4R16440   4.302   3.016   3.001  0.0953  0.0351 -0.8350
  369OL     H4S16441   4.470   3.032   3.038  2.0252 -0.3648 -1.9020
  369OL     C1516442   4.383   2.833   3.068  0.0670 -0.9077  0.1193
  369OL     H5R16443   4.332   2.755   3.010  1.2220 -2.0694  0.6208
  369OL     H5S16444   4.324   2.844   3.159  2.7628 -2.0999  2.1526
  369OL     C1616445   4.523   2.774   3.105  0.5809  0.5348  0.4579
  369OL     H6R16446   4.583   2.851   3.155  3.2326  0.1358 -1.8201
  369OL     H6S16447   4.574   2.760   3.009 -0.5900 -0.0474 -0.0937
  369OL     C1716448   4.518   2.642   3.187  0.1510 -0.3775 -0.2211
  369OL     H7R16449   4.434   2.660   3.254 -0.0023 -0.8453 -0.2852
  369OL     H7S16450   4.608   2.641   3.249 -1.1404  0.3984  1.7823
  369OL     C1816451   4.496   2.502   3.119 -0.0584 -0.5167  0.3958
  369OL     H8R16452   4.549   2.495   3.024  0.3579  2.3229  0.3216
  369OL     H8S16453   4.388   2.486   3.117 -0.0142 -0.8082 -1.0504
  369OL     C1916454   4.535   2.392   3.213  0.5764  0.4700  0.1636
  369OL     H9R16455   4.501   2.410   3.314  0.4843 -0.8866  0.3885
  369OL    C11016456   4.580   2.273   3.182 -0.0513 -0.2181 -0.0440
  369OL    H10R16457   4.595   2.200   3.262  0.1797 -0.3652 -0.2228
  369OL    C11116458   4.634   2.231   3.046  0.0035 -0.7655  0.6890
  369OL    H11R16459   4.606   2.289   2.957  0.8963 -0.7392  0.4207
  369OL    H11S16460   4.603   2.130   3.021 -0.0965 -0.6231  0.2133
  369OL    C11216461   4.785   2.219   3.045  0.1435  0.3360  0.2358
  369OL    H12R16462   4.798   2.179   2.944 -0.4001 -1.0631  0.6895
  369OL    H12S16463   4.801   2.124   3.097  2.9548  0.8328  0.4638
  369OL    C11316464   4.877   2.333   3.092  0.2573 -0.0990 -0.2363
  369OL    H13R16465   4.849   2.349   3.196 -1.3871  3.1313 -1.0629
  369OL    H13S16466   4.858   2.423   3.034  1.1218 -0.0086 -0.3991
  369OL    C11416467   5.028   2.296   3.065 -0.0040  0.0426  0.1402
  369OL    H14R16468   5.056   2.287   2.960  2.0596 -0.0570  0.6457
  369OL    H14S16469   5.057   2.199   3.107  2.9075 -0.7533 -3.1715
  369OL    C11516470   5.117   2.393   3.133 -0.1345 -1.1357 -0.7477
  369OL    H15R16471   5.083   2.415   3.234  2.1252  2.0043 -0.5279
  369OL    H15S16472   5.096   2.483   3.074  2.9718 -0.1930 -0.5932
  369OL    C11616473   5.272   2.358   3.140 -0.4585  0.9121  0.2083
  369OL    H16R16474   5.283   2.255   3.176  0.9118  0.9618 -0.0140
  369OL    H16S16475   5.333   2.411   3.213 -0.2243 -1.7512  2.1252
  369OL    C11716476   5.338   2.366   2.996  0.3262 -0.0076  0.0076
  369OL    H17R16477   5.352   2.470   2.965  3.0418 -0.6972 -1.4454
  369OL    H17S16478   5.273   2.322   2.920 -2.5257  2.1609  1.0442
  369OL    C11816479   5.470   2.291   2.993 -0.1689 -0.1634  0.2800
  369OL    H18R16480   5.536   2.332   2.917  0.7255  1.8035  2.0095
  369OL    H18S16481   5.449   2.186   2.969  3.8412 -0.5951 -2.2084
  369OL    H18T16482   5.524   2.288   3.088 -0.0852 -0.8641  0.2164
  370PA    C11616483   5.173   4.691   3.945 -0.0718  1.4558  0.0787
  370PA    H16R16484   5.141   4.632   3.859  0.6949  0.0141  0.7605
  370PA    H16S16485   5.136   4.623   4.021  0.0596  0.6040 -0.6024
  370PA    H16T16486   5.282   4.698   3.946  0.0360  0.3919 -1.1258
  370PA    C11516487   5.106   4.823   3.943  0.2962 -0.4343  0.0835
  370PA    H15R16488   4.999   4.809   3.922  0.6213 -0.0845 -2.0600
  370PA    H15S16489   5.112   4.871   4.041 -0.0083 -0.1721 -0.0226
  370PA    C11416490   5.163   4.920   3.837 -0.1635 -0.0670 -0.1119
  370PA    H14R16491   5.271   4.930   3.856 -0.9299  3.8405  4.0575
  370PA    H14S16492   5.139   4.884   3.737 -2.3178  3.6196 -1.1174
  370PA    C11316493   5.100   5.056   3.854 -0.5078  0.2001 -0.8690
  370PA    H13R16494   4.993   5.036   3.854 -0.1369 -2.2383  1.2872
  370PA    H13S16495   5.125   5.085   3.956  0.0886 -0.3416 -0.8583
  370PA    C11216496   5.142   5.173   3.760  0.6101  0.5167 -1.2880
  370PA    H12R16497   5.082   5.260   3.787 -0.1903 -0.4830  0.3511
  370PA    H12S16498   5.247   5.198   3.776  0.5153  0.7561 -1.0198
  370PA    C11116499   5.103   5.137   3.610  0.4650 -0.4552 -0.6650
  370PA    H11R16500   5.175   5.067   3.568  0.8288 -0.1688 -0.5293
  370PA    H11S16501   5.009   5.083   3.608 -0.5549  1.0632  1.4198
  370PA    C11016502   5.094   5.258   3.519  0.7037  0.4561  0.7852
  370PA    H10R16503   5.018   5.329   3.550 -2.1687 -0.6114 -3.0182
  370PA    H10S16504   5.191   5.308   3.519  1.2200 -0.0349 -4.1667
  370PA     C1916505   5.087   5.219   3.365  0.3349 -0.6273  0.3475
  370PA     H9R16506   5.161   5.141   3.345  0.1825 -0.6687 -0.0573
  370PA     H9S16507   4.987   5.176   3.352 -0.9427  1.2783  2.7710
  370PA     C1816508   5.100   5.339   3.267 -0.3879  0.6295 -0.1880
  370PA     H8R16509   5.024   5.409   3.301 -0.5756  0.6272 -0.5901
  370PA     H8S16510   5.198   5.378   3.291  0.7625 -2.0244 -0.1891
  370PA     C1716511   5.078   5.303   3.114 -0.1519 -0.2001 -0.2097
  370PA     H7R16512   5.140   5.216   3.093  0.6738  0.5046 -0.8101
  370PA     H7S16513   4.977   5.269   3.093 -0.4104 -0.2818  1.0848
  370PA     C1616514   5.095   5.423   3.017 -0.4055  0.0068 -0.1808
  370PA     H6R16515   5.021   5.503   3.019 -1.9843 -1.3474 -1.5040
  370PA     H6S16516   5.190   5.472   3.041  0.5088 -1.7326 -0.0718
  370PA     C1516517   5.098   5.375   2.873 -0.4764 -0.0324  0.1484
  370PA     H5R16518   5.007   5.317   2.852  0.1953 -0.1710 -2.7986
  370PA     H5S16519   5.097   5.457   2.801 -2.6018 -0.0102  0.1400
  370PA     C1416520   5.229   5.293   2.845 -0.3421 -0.6616  0.1002
  370PA     H4R16521   5.318   5.339   2.888  0.6506  1.1065 -3.5314
  370PA     H4S16522   5.218   5.198   2.898  1.8513 -0.9666  0.1098
  370PA     C1316523   5.237   5.263   2.691 -0.3059 -0.0840  0.4542
  370PA     H3R16524   5.142   5.215   2.670 -0.2785 -0.6617  1.5401
  370PA     H3S16525   5.234   5.356   2.633  0.2872 -1.0667 -1.2062
  370PA     C1216526   5.352   5.178   2.653 -0.1129 -0.1195  0.1137
  370PA     H2R16527   5.441   5.239   2.633 -0.9301  1.7265  1.7623
  370PA     H2S16528   5.373   5.103   2.729  0.2267 -0.2272 -0.0836
  371PC     C1116529   5.341   5.103   2.519 -0.0042 -0.2083  0.2910
  371PC     O1216530   5.240   5.096   2.448  0.2310 -0.0322 -0.6442
  371PC     O1116531   5.454   5.032   2.500  0.3788  0.6780  0.2683
  371PC      C116532   5.461   4.947   2.382  0.1517  0.0139  0.0191
  371PC      HR16533   5.546   4.879   2.395 -0.6914 -1.3222 -1.1621
  371PC      HS16534   5.367   4.894   2.367  1.0908 -1.8308  0.3234
  371PC      C216535   5.495   5.033   2.258 -0.4175 -0.7845 -0.2089
  371PC      HX16536   5.410   5.097   2.232 -1.5134 -1.7274  0.8896
  371PC      C316537   5.538   4.946   2.141  0.3264  0.1761  0.4647
  371PC      HA16538   5.600   5.006   2.075 -0.8222 -0.6643 -1.4595
  371PC      HB16539   5.603   4.866   2.177  1.4304  0.8390  0.0055
  371PC     O3116540   5.422   4.887   2.068 -0.1509 -0.1722 -0.8897
  371PC     P3116541   5.334   4.955   1.947 -0.0387 -0.1916 -0.8294
  371PC     O3216542   5.256   5.054   2.038 -0.0579 -0.4399 -0.2861
  371PC     C3116543   5.172   5.008   2.145  0.1168 -0.0117 -0.2812
  371PC     H1A16544   5.211   4.910   2.173  0.2774 -0.3785 -1.7034
  371PC     H1B16545   5.172   5.078   2.229 -3.1604  1.7429 -1.5618
  371PC     C3216546   5.027   4.997   2.094 -0.6304 -0.0078 -0.1885
  371PC     H2A16547   5.020   4.915   2.022 -2.9769  0.2200 -0.2839
  371PC     H2B16548   4.969   4.967   2.181  0.6918  1.7868  1.3930
  371PC     N3116549   4.964   5.121   2.032  0.1626 -0.3603 -0.5440
  371PC     C3316550   4.995   5.133   1.878  0.3332  0.2165 -0.2868
  371PC     H3A16551   4.953   5.220   1.827  0.9526 -0.5376 -2.1690
  371PC     H3B16552   5.101   5.136   1.851 -0.2921 -0.9085 -3.2569
  371PC     H3C16553   4.956   5.047   1.823 -1.0465 -1.2699  2.7931
  371PC     C3416554   4.819   5.103   2.028  0.5637  0.1538 -0.1184
  371PC     H4A16555   4.793   5.005   1.989 -1.9837  0.8498 -0.3204
  371PC     H4B16556   4.784   5.106   2.132  1.1242 -0.5275  0.1013
  371PC     H4C16557   4.775   5.183   1.969  2.0919  1.1937  0.0707
  371PC     C3516558   5.002   5.249   2.104  0.1343 -0.6402 -0.1030
  371PC     H5A16559   5.110   5.248   2.087  0.0646 -2.0459 -0.5804
  371PC     H5B16560   4.987   5.247   2.212 -0.1793 -1.7610 -0.1582
  371PC     H5C16561   4.973   5.346   2.062  0.2646  0.6091  2.4515
  371PC     O3316562   5.425   5.038   1.864 -0.2421 -0.7095  0.0262
  371PC     O3416563   5.238   4.864   1.881 -0.0441 -0.1795 -0.6813
  371PC     O2116564   5.612   5.111   2.286 -0.7385 -0.6282  0.6770
  371PC     C2116565   5.597   5.238   2.304 -0.5717 -0.0797  0.1505
  371PC     O2216566   5.489   5.279   2.344  0.0735  0.5080 -0.4603
  372OL     C1216567   5.722   5.325   2.285  0.2244 -0.2274  0.0825
  372OL     H2R16568   5.690   5.429   2.299 -2.3211 -0.8396 -0.5160
  372OL     H2S16569   5.762   5.317   2.184  2.3760  2.3401  0.6077
  372OL     C1316570   5.838   5.286   2.372 -0.0256  0.0132  0.9308
  372OL     H3R16571   5.931   5.323   2.328 -0.4565  0.0401  0.0217
  372OL     H3S16572   5.865   5.181   2.360  0.5745  0.3531 -0.9521
  372OL     C1416573   5.831   5.330   2.519  0.1296  0.3391  0.6814
  372OL     H4R16574   5.929   5.306   2.560 -0.7127 -0.1904  2.5103
  372OL     H4S16575   5.761   5.269   2.576 -0.9788 -0.6508 -1.6150
  372OL     C1516576   5.801   5.480   2.545  0.3562 -0.6103  0.1583
  372OL     H5R16577   5.707   5.504   2.494  0.2249  2.0885  1.4656
  372OL     H5S16578   5.884   5.530   2.493  2.0691 -2.0333  1.4311
  372OL     C1616579   5.791   5.528   2.697 -0.3392 -0.3500  0.9340
  372OL     H6R16580   5.821   5.633   2.688 -2.3059  0.1320 -0.7951
  372OL     H6S16581   5.854   5.472   2.765  2.0164 -1.2858 -1.8359
  372OL     C1716582   5.650   5.511   2.750  0.4760 -0.0639 -0.2185
  372OL     H7R16583   5.631   5.404   2.764  0.2190  0.3033  2.9674
  372OL     H7S16584   5.582   5.551   2.674  1.9473 -0.1060 -1.5923
  372OL     C1816585   5.626   5.590   2.882  0.1375 -0.6109  0.5612
  372OL     H8R16586   5.663   5.693   2.872  0.1558 -0.5264  1.3744
  372OL     H8S16587   5.678   5.537   2.962 -0.6085  0.0903  1.5394
  372OL     C1916588   5.478   5.601   2.917  0.5204  0.6458  0.0948
  372OL     H9R16589   5.425   5.651   2.836  1.0835 -0.1394 -0.7935
  372OL    C11016590   5.418   5.588   3.034  0.0938 -0.9530 -0.4742
  372OL    H10R16591   5.311   5.604   3.034  0.2610  0.7613 -2.6171
  372OL    C11116592   5.487   5.533   3.155  0.0205  0.4988  0.3099
  372OL    H11R16593   5.593   5.558   3.146  0.4395 -1.5108 -1.3225
  372OL    H11S16594   5.475   5.425   3.167 -0.9899  0.5927  0.2156
  372OL    C11216595   5.430   5.599   3.282 -0.0604 -0.9169  0.3608
  372OL    H12R16596   5.331   5.559   3.304 -1.0038  1.0474 -0.0937
  372OL    H12S16597   5.433   5.708   3.276  1.9584 -0.7570  2.5947
  372OL    C11316598   5.536   5.585   3.394  0.7800 -0.0807  0.7604
  372OL    H13R16599   5.612   5.660   3.372  3.1191 -1.8012  2.4127
  372OL    H13S16600   5.577   5.484   3.386  0.0049 -0.4675  1.5908
  372OL    C11416601   5.469   5.605   3.529  0.2744 -0.4053  0.2995
  372OL    H14R16602   5.407   5.519   3.553 -1.7613  1.4794  2.3007
  372OL    H14S16603   5.401   5.690   3.531 -0.4864 -0.9633 -0.8911
  372OL    C11516604   5.580   5.611   3.644 -0.8771 -0.7210 -0.2903
  372OL    H15R16605   5.664   5.674   3.612 -0.4476 -0.9746  0.3187
  372OL    H15S16606   5.615   5.509   3.662 -0.1323 -0.1515  1.7288
  372OL    C11616607   5.530   5.646   3.789  0.6500  0.1278  0.1631
  372OL    H16R16608   5.615   5.648   3.857 -0.9204 -2.4580  2.3910
  372OL    H16S16609   5.467   5.563   3.821 -1.3951  1.5460  0.0169
  372OL    C11716610   5.445   5.767   3.805  0.4415 -0.2188 -0.3778
  372OL    H17R16611   5.361   5.756   3.736  0.5946 -2.2753 -0.2779
  372OL    H17S16612   5.510   5.850   3.775  0.9909 -0.3080  0.5623
  372OL    C11816613   5.385   5.783   3.944  0.2624 -0.1200  0.5125
  372OL    H18R16614   5.313   5.702   3.961 -0.1468  0.1108 -0.1013
  372OL    H18S16615   5.330   5.877   3.948  2.4532  1.4289 -2.4884
  372OL    H18T16616   5.471   5.789   4.011  0.2333 -0.3112  0.5703
  373PA    C11616617   1.708  -1.988   3.465 -0.0629  0.1000  0.1285
  373PA    H16R16618   1.681  -2.093   3.469 -1.0258  0.3536  0.8656
  373PA    H16S16619   1.633  -1.922   3.510 -0.0419  0.0195  0.2784
  373PA    H16T16620   1.808  -1.975   3.506  0.9498 -1.7516 -1.5893
  373PA    C11516621   1.711  -1.946   3.316 -0.0552 -0.7632  0.0006
  373PA    H15R16622   1.617  -1.972   3.266  0.1374 -0.3358 -0.5996
  373PA    H15S16623   1.712  -1.837   3.315 -2.8346 -0.6536  1.3677
  373PA    C11416624   1.834  -1.996   3.236  0.7270  0.6871  0.2543
  373PA    H14R16625   1.838  -1.966   3.131 -0.4530 -0.0442 -0.0206
  373PA    H14S16626   1.922  -1.953   3.284 -1.5574  2.1874  3.4707
  373PA    C11316627   1.861  -2.146   3.225 -0.7284  0.0712 -0.2272
  373PA    H13R16628   1.954  -2.161   3.169 -1.1233  1.7142 -1.3952
  373PA    H13S16629   1.871  -2.189   3.325  0.7939 -1.2577 -0.9220
  373PA    C11216630   1.742  -2.220   3.154 -0.5757  0.2288  0.0585
  373PA    H12R16631   1.648  -2.199   3.205 -1.2058  2.4069 -1.7782
  373PA    H12S16632   1.738  -2.174   3.055  0.8921 -1.5498 -0.8806
  373PA    C11116633   1.766  -2.365   3.129  0.4283 -0.2640 -0.4060
  373PA    H11R16634   1.870  -2.380   3.099  0.9608  1.5892  0.3615
  373PA    H11S16635   1.754  -2.411   3.227  2.7917  0.6278  0.3727
  373PA    C11016636   1.673  -2.431   3.028  0.0280 -0.9181  0.4730
  373PA    H10R16637   1.569  -2.410   3.054 -0.0104  0.1240 -0.4815
  373PA    H10S16638   1.689  -2.392   2.928  1.0732 -0.3902  0.8321
  373PA     C1916639   1.691  -2.580   3.019  0.6259  0.2158 -0.0265
  373PA     H9R16640   1.680  -2.637   3.111 -2.3290  0.1224 -0.3410
  373PA     H9S16641   1.607  -2.612   2.957  0.7421  0.8544 -0.5211
  373PA     C1816642   1.816  -2.628   2.941 -0.0026  0.2817 -0.0782
  373PA     H8R16643   1.899  -2.560   2.961  0.3454 -0.6850  2.1678
  373PA     H8S16644   1.868  -2.710   2.992 -0.3945  1.3608  2.1501
  373PA     C1716645   1.784  -2.661   2.788 -0.2561  0.1700 -0.2662
  373PA     H7R16646   1.715  -2.745   2.789 -0.6034  0.4461 -0.9475
  373PA     H7S16647   1.731  -2.576   2.744 -0.2702  0.3767  0.1397
  373PA     C1616648   1.910  -2.702   2.706  0.9544  0.4442 -0.2508
  373PA     H6R16649   1.977  -2.616   2.715  1.2254  0.3813 -1.5074
  373PA     H6S16650   1.947  -2.797   2.744 -1.7322 -1.2234 -1.5386
  373PA     C1516651   1.872  -2.726   2.565 -0.2136  0.1793 -0.0996
  373PA     H5R16652   1.789  -2.797   2.564  0.9011 -1.1368 -0.9981
  373PA     H5S16653   1.838  -2.629   2.527 -0.1833  0.5996  0.8989
  373PA     C1416654   1.981  -2.792   2.482 -0.7446 -0.7246 -1.2755
  373PA     H4R16655   2.064  -2.722   2.467 -0.8634 -0.5428 -1.0981
  373PA     H4S16656   2.035  -2.879   2.518 -0.2368  0.4581  1.0368
  373PA     C1316657   1.921  -2.827   2.342 -0.1207 -0.0204  0.4643
  373PA     H3R16658   2.002  -2.859   2.276 -0.7301 -1.1531  0.2281
  373PA     H3S16659   1.857  -2.915   2.348 -0.3686  0.2120  1.5539
  373PA     C1216660   1.848  -2.708   2.271  0.5857 -0.2407 -0.2239
  373PA     H2R16661   1.762  -2.677   2.330  0.2359  1.1903 -1.4128
  373PA     H2S16662   1.903  -2.613   2.267 -1.4968  1.1037  1.1015
  374PC     C1116663   1.785  -2.741   2.135  0.0905  0.0513  0.1102
  374PC     O1216664   1.819  -2.837   2.065 -0.0493  0.5785  0.2917
  374PC     O1116665   1.689  -2.658   2.102  0.2619 -0.5833  0.5807
  374PC      C116666   1.627  -2.663   1.974  0.1725 -0.0865  0.0056
  374PC      HR16667   1.587  -2.567   1.938 -0.4636 -0.7230 -1.0361
  374PC      HS16668   1.707  -2.678   1.901  0.5646  0.9726  0.1931
  374PC      C216669   1.508  -2.762   1.979 -0.7475  0.4755 -0.0982
  374PC      HX16670   1.550  -2.862   1.986 -0.9616  0.4356  0.7241
  374PC      C316671   1.406  -2.758   1.867  0.6152 -0.4947  0.3664
  374PC      HA16672   1.432  -2.823   1.783  1.1272  1.1448 -0.7987
  374PC      HB16673   1.304  -2.787   1.895 -1.2382  3.3757 -1.5794
  374PC     O3116674   1.394  -2.622   1.824 -0.2103 -0.5167  0.6612
  374PC     P3116675   1.410  -2.583   1.674 -0.5985  0.1118  0.0822
  374PC     O3216676   1.282  -2.630   1.600 -0.1837 -0.5265  0.1690
  374PC     C3116677   1.156  -2.565   1.631  0.0563  0.3714  0.0311
  374PC     H1A16678   1.151  -2.544   1.738  4.4697  1.6346  0.2273
  374PC     H1B16679   1.140  -2.470   1.579 -1.4180  0.4586  0.6086
  374PC     C3216680   1.045  -2.663   1.576 -0.1823  0.4349 -0.1096
  374PC     H2A16681   1.050  -2.679   1.469 -1.9361  1.0592 -0.3282
  374PC     H2B16682   1.066  -2.757   1.627  1.7183  0.9006  0.0395
  374PC     N3116683   0.899  -2.631   1.608  0.4047 -0.5591  0.1731
  374PC     C3316684   0.866  -2.648   1.755  0.2818 -0.5257  0.0347
  374PC     H3A16685   0.914  -2.558   1.794 -1.4783  0.6257 -0.2968
  374PC     H3B16686   0.759  -2.636   1.773  0.5749  0.1997  1.4415
  374PC     H3C16687   0.906  -2.735   1.807 -1.1866 -1.3921 -0.2187
  374PC     C3416688   0.869  -2.489   1.561 -0.1895  0.2336  0.1563
  374PC     H4A16689   0.760  -2.481   1.567 -0.2103 -0.1359  0.3463
  374PC     H4B16690   0.911  -2.411   1.624 -0.7186  2.9186 -2.5874
  374PC     H4C16691   0.906  -2.467   1.461 -0.8834  0.6264 -0.0174
  374PC     C3516692   0.816  -2.719   1.519  1.0288 -0.2435 -0.4263
  374PC     H5A16693   0.809  -2.694   1.413 -2.0013 -0.7821 -0.4589
  374PC     H5B16694   0.714  -2.731   1.556  0.5460  0.9344 -1.2897
  374PC     H5C16695   0.867  -2.815   1.525 -1.5986 -1.6403  1.9839
  374PC     O3316696   1.414  -2.436   1.663  0.1083  0.1663  0.1257
  374PC     O3416697   1.518  -2.660   1.616 -1.1271  0.1000 -0.2621
  374PC     O2116698   1.429  -2.736   2.101  0.0213 -0.0196  0.5001
  374PC     C2116699   1.466  -2.793   2.217 -0.1827 -0.1414 -0.5957
  374PC     O2216700   1.544  -2.883   2.229  0.0052 -0.4193 -0.1756
  375OL     C1216701   1.392  -2.735   2.329 -0.7792 -0.1177  0.1096
  375OL     H2R16702   1.308  -2.804   2.344 -0.2640 -0.9350 -0.6499
  375OL     H2S16703   1.347  -2.642   2.296 -0.6381 -0.0367  0.1438
  375OL     C1316704   1.479  -2.713   2.454  0.4870  0.8592 -0.0094
  375OL     H3R16705   1.557  -2.637   2.444 -1.1310  2.7253  0.9557
  375OL     H3S16706   1.523  -2.812   2.468  1.9030  1.5644  0.7287
  375OL     C1416707   1.382  -2.676   2.574  0.1142  0.1727 -0.5793
  375OL     H4R16708   1.443  -2.686   2.664 -0.5959  0.9718  0.0165
  375OL     H4S16709   1.306  -2.754   2.588 -1.0986  1.8067  3.4563
  375OL     C1516710   1.314  -2.537   2.564 -0.0386  0.8834  0.6051
  375OL     H5R16711   1.250  -2.520   2.478 -1.1222  4.2357  1.9064
  375OL     H5S16712   1.392  -2.460   2.567 -0.8018  1.6496  1.1762
  375OL     C1616713   1.226  -2.507   2.679  0.1723  0.3199 -0.6064
  375OL     H6R16714   1.151  -2.584   2.695  0.0244  0.7785  1.1262
  375OL     H6S16715   1.176  -2.413   2.654 -0.3698 -0.0172 -0.7835
  375OL     C1716716   1.299  -2.501   2.815  0.2084 -0.4639  0.1133
  375OL     H7R16717   1.369  -2.418   2.820  1.5359 -1.4733 -0.9307
  375OL     H7S16718   1.352  -2.590   2.848  0.7287  0.8023  2.9095
  375OL     C1816719   1.186  -2.470   2.916 -0.6693  0.2829 -0.3449
  375OL     H8R16720   1.110  -2.548   2.926 -0.4101  0.1260  0.5222
  375OL     H8S16721   1.123  -2.386   2.886 -0.1045  0.7005 -0.3898
  375OL     C1916722   1.242  -2.452   3.053 -0.5127 -0.3155 -0.7394
  375OL     H9R16723   1.307  -2.534   3.081 -0.3797  0.0597  0.0953
  375OL    C11016724   1.234  -2.349   3.140 -0.0759 -0.0865  0.5129
  375OL    H10R16725   1.296  -2.356   3.229  1.1377 -0.2137 -0.3330
  375OL    C11116726   1.133  -2.234   3.125 -0.4993 -0.5250  0.2232
  375OL    H11R16727   1.092  -2.218   3.225  1.1715  1.5800  0.6436
  375OL    H11S16728   1.052  -2.265   3.059 -1.1057 -2.5886  1.8475
  375OL    C11216729   1.209  -2.100   3.088  0.0007  0.0120  0.0642
  375OL    H12R16730   1.301  -2.087   3.144  0.1987 -1.6494  0.1818
  375OL    H12S16731   1.138  -2.019   3.107 -0.1998  0.0138 -0.6486
  375OL    C11316732   1.244  -2.097   2.937  0.0696  0.1166  0.1802
  375OL    H13R16733   1.147  -2.122   2.893  0.4740 -1.8924  0.3684
  375OL    H13S16734   1.316  -2.171   2.900  1.6479  2.3016 -1.4374
  375OL    C11416735   1.282  -1.954   2.887 -0.2721  0.2596 -0.4144
  375OL    H14R16736   1.203  -1.881   2.906 -1.2116 -0.9267  0.4229
  375OL    H14S16737   1.307  -1.950   2.781  1.4892  2.0749  0.0163
  375OL    C11516738   1.417  -1.903   2.955  0.0596 -0.4171 -0.3592
  375OL    H15R16739   1.399  -1.877   3.059  0.1506  1.2852 -0.7426
  375OL    H15S16740   1.427  -1.802   2.915 -0.3067 -0.7684 -1.3669
  375OL    C11616741   1.539  -1.992   2.925  0.8853 -0.6625 -0.6221
  375OL    H16R16742   1.513  -2.087   2.971  0.0756 -0.1004  0.1091
  375OL    H16S16743   1.631  -1.960   2.975  0.9465 -2.9740  0.8731
  375OL    C11716744   1.571  -2.009   2.776 -0.9061 -0.0795 -0.1926
  375OL    H17R16745   1.481  -2.015   2.713 -1.5019 -0.5448  0.6846
  375OL    H17S16746   1.632  -1.922   2.753  1.9493 -1.8464  0.2903
  375OL    C11816747   1.664  -2.124   2.750  0.5593  0.5518  0.1404
  375OL    H18R16748   1.739  -2.134   2.828  0.3730 -0.5093  0.1999
  375OL    H18S16749   1.701  -2.115   2.647 -0.1106  2.1407  0.0147
  375OL    H18T16750   1.601  -2.212   2.768  1.4895  0.4010  3.3458
  376PA    C11616751   4.453  -1.612   3.008 -0.7934  0.5291  0.0150
  376PA    H16R16752   4.463  -1.515   3.057  1.6612 -0.6221  2.0346
  376PA    H16S16753   4.368  -1.602   2.940 -2.4889  0.7267  2.0556
  376PA    H16T16754   4.549  -1.626   2.958 -1.0684  1.4982 -0.8104
  376PA    C11516755   4.434  -1.728   3.110 -0.2033 -0.2994 -0.2940
  376PA    H15R16756   4.331  -1.734   3.147 -0.5966  0.6578 -1.1982
  376PA    H15S16757   4.452  -1.815   3.047 -1.4357 -0.0136 -1.0713
  376PA    C11416758   4.534  -1.710   3.225  0.8566  0.4170 -0.3183
  376PA    H14R16759   4.511  -1.614   3.272 -3.1315 -0.6161  0.2283
  376PA    H14S16760   4.515  -1.797   3.287  0.8936  0.0681 -0.7870
  376PA    C11316761   4.682  -1.708   3.184 -0.4395 -0.3280 -0.1914
  376PA    H13R16762   4.702  -1.791   3.115  0.0730 -0.5764  0.2552
  376PA    H13S16763   4.705  -1.614   3.133  1.5805 -0.8907 -0.3974
  376PA    C11216764   4.767  -1.714   3.316 -0.4533 -0.0482 -0.3925
  376PA    H12R16765   4.739  -1.628   3.377  0.0926  0.1174 -0.3700
  376PA    H12S16766   4.739  -1.797   3.382 -3.3180  1.6122  0.6448
  376PA    C11116767   4.919  -1.733   3.286 -0.2204 -0.4747  0.6115
  376PA    H11R16768   4.970  -1.713   3.381  0.0066  0.3216  0.3355
  376PA    H11S16769   4.933  -1.838   3.259 -1.2544 -0.0855 -1.6058
  376PA    C11016770   4.966  -1.627   3.182  0.0379  0.4073  0.5361
  376PA    H10R16771   4.915  -1.646   3.088 -1.1225  0.6644  1.1033
  376PA    H10S16772   4.923  -1.536   3.224 -2.5014  0.4350 -1.8299
  376PA     C1916773   5.118  -1.603   3.168  0.9058  0.8975  0.2113
  376PA     H9R16774   5.149  -1.570   3.267 -1.1894  0.1840  1.1813
  376PA     H9S16775   5.168  -1.697   3.144 -0.0789  0.0167  1.4290
  376PA     C1816776   5.152  -1.496   3.065  0.4641  0.4609 -0.1072
  376PA     H8R16777   5.105  -1.401   3.092  0.2925 -0.1523  1.8342
  376PA     H8S16778   5.259  -1.475   3.074  0.6931 -0.1518 -1.1845
  376PA     C1716779   5.129  -1.542   2.916 -0.1361  0.4391  0.0560
  376PA     H7R16780   5.177  -1.638   2.901 -1.7381 -0.8535  2.4935
  376PA     H7S16781   5.023  -1.538   2.891  0.0741 -0.3076 -0.9737
  376PA     C1616782   5.200  -1.442   2.823 -0.5368  0.3145  0.3043
  376PA     H6R16783   5.151  -1.345   2.828 -0.0715  0.5003  2.2433
  376PA     H6S16784   5.304  -1.431   2.857 -0.5311 -2.6670  1.5721
  376PA     C1516785   5.210  -1.488   2.677 -0.3587  0.1908  0.1982
  376PA     H5R16786   5.260  -1.427   2.602 -1.4734 -1.9747 -2.4956
  376PA     H5S16787   5.264  -1.582   2.676  2.0271  1.4064  2.3898
  376PA     C1416788   5.060  -1.515   2.633  0.4648 -0.7668  0.6821
  376PA     H4R16789   5.028  -1.612   2.671 -0.3585 -0.4953  0.6932
  376PA     H4S16790   5.000  -1.428   2.658  1.0370  0.0901 -0.8265
  376PA     C1316791   5.041  -1.536   2.480 -0.2224 -0.4415 -0.2145
  376PA     H3R16792   4.934  -1.543   2.458 -0.8556  0.3079  2.2983
  376PA     H3S16793   5.087  -1.457   2.420 -1.3602 -0.0508 -0.6086
  376PA     C1216794   5.109  -1.667   2.441  0.3596  0.2508  0.4798
  376PA     H2R16795   5.214  -1.675   2.470  0.6877  0.9017 -0.4783
  376PA     H2S16796   5.054  -1.746   2.491  1.6697  0.0028  1.5892
  377PC     C1116797   5.098  -1.684   2.292  0.1782 -0.0052  0.5973
  377PC     O1216798   5.022  -1.619   2.223 -0.5340  0.9301  0.2931
  377PC     O1116799   5.184  -1.780   2.251  0.2146 -0.1794  0.3589
  377PC      C116800   5.205  -1.789   2.104  0.0582 -0.4140 -0.1337
  377PC      HR16801   5.270  -1.872   2.078  0.9725  0.4129 -0.5647
  377PC      HS16802   5.105  -1.797   2.059  0.8533 -1.4421 -1.8273
  377PC      C216803   5.284  -1.665   2.058  0.3377  1.1155  0.0089
  377PC      HX16804   5.232  -1.570   2.072 -1.0197  0.0138  3.0568
  377PC      C316805   5.293  -1.662   1.904 -0.7061 -0.6118  0.0042
  377PC      HA16806   5.198  -1.632   1.859  0.1599  0.9171 -0.9371
  377PC      HB16807   5.365  -1.587   1.870  0.1543 -0.0638  2.8051
  377PC     O3116808   5.318  -1.788   1.841 -0.5566  0.7715 -0.3258
  377PC     P3116809   5.305  -1.805   1.683  0.6552 -0.0381  0.4392
  377PC     O3216810   5.155  -1.818   1.661 -0.3016 -0.3744 -0.7522
  377PC     C3116811   5.078  -1.919   1.725 -1.1326 -0.0744 -0.2190
  377PC     H1A16812   5.132  -2.011   1.703  0.1980  1.1713 -2.5022
  377PC     H1B16813   5.064  -1.896   1.831  0.3593 -1.0831  0.2282
  377PC     C3216814   4.945  -1.915   1.654  1.0876  0.6543  0.4819
  377PC     H2A16815   4.972  -1.935   1.550  2.2656  0.4954  0.8029
  377PC     H2B16816   4.892  -2.005   1.685  2.4403 -0.7302 -1.0369
  377PC     N3116817   4.853  -1.794   1.656  0.0583 -0.1528  0.1209
  377PC     C3316818   4.837  -1.764   1.804 -0.1051  0.4936 -0.0144
  377PC     H3A16819   4.775  -1.843   1.846  0.6811  0.2107  0.6362
  377PC     H3B16820   4.935  -1.763   1.851  0.0001  1.8598 -0.2232
  377PC     H3C16821   4.797  -1.662   1.810  0.2767  0.7624 -1.6203
  377PC     C3416822   4.917  -1.673   1.591  0.1709 -0.5154  0.3476
  377PC     H4A16823   5.024  -1.663   1.611  0.5031 -2.3369 -0.3564
  377PC     H4B16824   4.919  -1.690   1.483 -0.7997  0.5606  0.1325
  377PC     H4C16825   4.857  -1.583   1.611 -0.9414 -1.1746  0.0539
  377PC     C3516826   4.721  -1.836   1.603  0.0254  0.4317  0.1052
  377PC     H5A16827   4.732  -1.881   1.504 -0.7962  1.1695 -0.3412
  377PC     H5B16828   4.675  -1.742   1.573  1.9955  1.7990  1.1400
  377PC     H5C16829   4.653  -1.893   1.666 -0.9879  0.2548 -1.1174
  377PC     O3316830   5.344  -1.676   1.618  0.1143  0.6900  0.4171
  377PC     O3416831   5.374  -1.931   1.647  0.9840 -1.0071 -0.0799
  377PC     O2116832   5.423  -1.670   2.112  0.2672  0.7010  0.1360
  377PC     C2116833   5.447  -1.621   2.230  0.8086  1.2355 -0.1270
  377PC     O2216834   5.362  -1.553   2.290  0.5234  0.1892  0.1840
  378OL     C1216835   5.568  -1.676   2.293 -0.0403  0.0843  0.2315
  378OL     H2R16836   5.641  -1.642   2.220 -0.3975  1.5030  0.4939
  378OL     H2S16837   5.555  -1.784   2.283 -1.0669  0.1280  0.9504
  378OL     C1316838   5.606  -1.646   2.438  0.4251 -0.5384 -0.5264
  378OL     H3R16839   5.523  -1.667   2.505  1.2307 -1.7110  0.1334
  378OL     H3S16840   5.619  -1.538   2.445  1.8886 -0.7437  0.2418
  378OL     C1416841   5.715  -1.736   2.493  0.1125 -0.3614 -0.9606
  378OL     H4R16842   5.805  -1.734   2.431  0.8195  2.9373 -0.0026
  378OL     H4S16843   5.675  -1.838   2.496 -1.5470  0.2509 -1.4724
  378OL     C1516844   5.764  -1.688   2.626 -0.3704 -0.5538  0.2815
  378OL     H5R16845   5.679  -1.683   2.693 -1.6210 -0.3796 -1.2641
  378OL     H5S16846   5.799  -1.586   2.609 -0.9750 -0.3415  0.2799
  378OL     C1616847   5.875  -1.784   2.671  0.1992 -0.1764  0.0736
  378OL     H6R16848   5.960  -1.782   2.602  0.4148  1.8405  0.3525
  378OL     H6S16849   5.835  -1.885   2.677  0.3246 -0.5210 -3.1037
  378OL     C1716850   5.936  -1.755   2.813 -0.1252  0.1385  0.1766
  378OL     H7R16851   5.965  -1.649   2.810  1.1648 -0.2178 -0.3600
  378OL     H7S16852   6.029  -1.812   2.814 -0.4711 -0.5854 -2.3643
  378OL     C1816853   5.845  -1.781   2.939  0.5254  1.0150 -0.6460
  378OL     H8R16854   5.779  -1.866   2.921 -1.7434  2.4477  0.5390
  378OL     H8S16855   5.783  -1.699   2.974 -0.4945 -0.6193  1.5988
  378OL     C1916856   5.935  -1.815   3.063 -0.3019 -0.8999  0.2788
  378OL     H9R16857   6.012  -1.739   3.077  0.9774 -1.9914 -0.6314
  378OL    C11016858   5.922  -1.913   3.151  0.5569  0.2421  0.6877
  378OL    H10R16859   5.979  -1.922   3.244  0.4065 -0.2203  0.7376
  378OL    C11116860   5.821  -2.026   3.160  0.5076 -0.6982  0.1741
  378OL    H11R16861   5.746  -2.028   3.080  0.0323 -0.6664  0.6127
  378OL    H11S16862   5.759  -2.017   3.249 -0.8485  0.8332 -0.8578
  378OL    C11216863   5.907  -2.159   3.156 -0.2529 -0.0988 -0.4108
  378OL    H12R16864   5.996  -2.149   3.218 -0.2537  0.1273 -0.4412
  378OL    H12S16865   5.928  -2.187   3.053 -4.7909 -1.8721 -1.0890
  378OL    C11316866   5.824  -2.263   3.229 -0.3605  0.0530  0.4832
  378OL    H13R16867   5.736  -2.275   3.166 -0.1157  1.3519 -0.1276
  378OL    H13S16868   5.794  -2.225   3.327  0.4756  1.7105  0.1294
  378OL    C11416869   5.893  -2.408   3.238  0.0377 -0.3932 -1.0261
  378OL    H14R16870   5.838  -2.471   3.309  0.2200 -2.4353 -2.6147
  378OL    H14S16871   5.991  -2.406   3.285 -1.3723 -0.3217  2.1760
  378OL    C11516872   5.919  -2.492   3.113 -0.4536  0.5034  0.6501
  378OL    H15R16873   5.955  -2.424   3.036 -0.9081  2.4070  2.0514
  378OL    H15S16874   5.818  -2.531   3.097 -0.1403 -0.3514  0.7177
  378OL    C11616875   6.004  -2.619   3.128 -0.0411 -0.1202 -0.2458
  378OL    H16R16876   5.961  -2.696   3.193 -0.9057 -2.3885 -3.2867
  378OL    H16S16877   6.097  -2.581   3.172 -0.9609  1.0619  0.7436
  378OL    C11716878   6.029  -2.687   2.997 -0.0339  0.3251  0.4394
  378OL    H17R16879   6.046  -2.612   2.919 -2.0469 -0.2875 -0.6846
  378OL    H17S16880   5.941  -2.745   2.966  0.3906  0.9300 -2.1229
  378OL    C11816881   6.144  -2.792   3.013  0.3024 -0.6428 -0.3587
  378OL    H18R16882   6.238  -2.741   3.036 -0.6692  0.8807  0.4136
  378OL    H18S16883   6.159  -2.836   2.914 -0.0110 -0.5764 -0.4387
  378OL    H18T16884   6.131  -2.869   3.089  0.9232  1.0870  1.5883
  379PA    C11616885   0.122   3.046   3.723  0.5219 -0.1596 -0.4719
  379PA    H16R16886   0.192   3.006   3.648  0.4476  0.3776 -0.8366
  379PA    H16S16887   0.160   3.029   3.824 -2.5881  1.6860  1.1711
  379PA    H16T16888   0.120   3.155   3.712  1.8544 -0.1189 -0.4831
  379PA    C11516889  -0.020   2.977   3.714 -0.4155  0.2098 -0.3918
  379PA    H15R16890  -0.054   2.970   3.611  0.2479  0.4689 -0.6304
  379PA    H15S16891  -0.012   2.879   3.762  0.2392  0.0797 -0.7644
  379PA    C11416892  -0.114   3.054   3.800 -0.8507  0.2032 -0.1720
  379PA    H14R16893  -0.087   3.026   3.902 -0.3927  1.2651  0.0077
  379PA    H14S16894  -0.102   3.159   3.776 -0.5291  0.1109 -0.4116
  379PA    C11316895  -0.258   3.027   3.776  0.2125  0.3564  0.2946
  379PA    H13R16896  -0.268   2.919   3.786 -0.3732  0.4695  1.0135
  379PA    H13S16897  -0.317   3.073   3.855  0.5302 -0.7161  1.1808
  379PA    C11216898  -0.300   3.076   3.631  0.0966  0.7354 -0.4603
  379PA    H12R16899  -0.243   3.028   3.552  1.7534 -1.2538  1.7979
  379PA    H12S16900  -0.406   3.052   3.622 -0.3254  2.4192 -0.3412
  379PA    C11116901  -0.305   3.231   3.623 -0.3299 -0.5605  0.6070
  379PA    H11R16902  -0.354   3.264   3.715 -0.6693 -1.0700  0.6059
  379PA    H11S16903  -0.204   3.272   3.614 -1.3816  1.8201 -2.1977
  379PA    C11016904  -0.386   3.277   3.500 -0.1929 -0.0666  1.2063
  379PA    H10R16905  -0.488   3.239   3.511 -1.3235  2.3708 -0.0799
  379PA    H10S16906  -0.391   3.386   3.500  0.1047  0.0425 -2.0858
  379PA     C1916907  -0.334   3.222   3.366 -0.0355  0.3116  0.0725
  379PA     H9R16908  -0.237   3.268   3.347  0.9713 -0.9004  2.0000
  379PA     H9S16909  -0.325   3.114   3.369 -1.5172  0.0992 -1.4775
  379PA     C1816910  -0.429   3.249   3.249  0.0670  0.5394  0.9466
  379PA     H8R16911  -0.512   3.184   3.277  0.0485  0.8589  1.6317
  379PA     H8S16912  -0.455   3.355   3.245  0.2925  0.6059  1.2209
  379PA     C1716913  -0.371   3.208   3.110  0.2044  0.0338  0.4643
  379PA     H7R16914  -0.310   3.286   3.064  2.1357 -0.7541  1.5703
  379PA     H7S16915  -0.315   3.115   3.115  2.5266  1.3318 -0.0134
  379PA     C1616916  -0.484   3.186   3.013  0.5020 -0.5174  0.4305
  379PA     H6R16917  -0.432   3.154   2.922 -0.5876 -1.7319  0.1979
  379PA     H6S16918  -0.538   3.094   3.037  1.7544 -1.3911  0.0380
  379PA     C1516919  -0.572   3.312   2.980 -0.4071  0.6313  0.0968
  379PA     H5R16920  -0.623   3.351   3.068  0.8630  1.0383  0.6597
  379PA     H5S16921  -0.513   3.395   2.941 -0.5353  0.5135 -0.3678
  379PA     C1416922  -0.679   3.285   2.875 -0.0785 -0.1515  0.7263
  379PA     H4R16923  -0.735   3.194   2.899 -0.3243 -0.3797 -0.6390
  379PA     H4S16924  -0.744   3.372   2.877 -0.7353 -0.4698 -2.4023
  379PA     C1316925  -0.625   3.273   2.740 -0.2605 -0.3619  0.1549
  379PA     H3R16926  -0.546   3.198   2.729 -1.4395 -1.8599  1.4669
  379PA     H3S16927  -0.712   3.245   2.680  1.8913 -1.3525 -2.7719
  379PA     C1216928  -0.571   3.392   2.673  0.2177 -0.0693  0.3884
  379PA     H2R16929  -0.643   3.472   2.692 -0.5946 -0.9328  1.0401
  379PA     H2S16930  -0.483   3.432   2.723  0.2974 -0.8666  0.8988
  380PC     C1116931  -0.524   3.373   2.526  0.1431 -0.3988 -0.0003
  380PC     O1216932  -0.588   3.420   2.435 -0.8759  0.0044 -0.0001
  380PC     O1116933  -0.412   3.296   2.519  0.4013 -0.3013 -0.0888
  380PC      C116934  -0.349   3.274   2.388  0.7917 -0.2715 -0.5860
  380PC      HR16935  -0.308   3.175   2.408 -0.3189 -0.7734 -0.7762
  380PC      HS16936  -0.421   3.266   2.307  0.0612 -2.2717  0.2172
  380PC      C216937  -0.229   3.378   2.372  0.4915  0.0271  0.0275
  380PC      HX16938  -0.266   3.477   2.345  2.8578  1.2800  1.1120
  380PC      C316939  -0.136   3.315   2.256 -0.1809  0.0381 -0.4330
  380PC      HA16940  -0.039   3.364   2.241  0.0083 -0.4173 -0.7358
  380PC      HB16941  -0.109   3.213   2.284  3.3517  0.9112 -0.2331
  380PC     O3116942  -0.209   3.316   2.135  0.1028 -0.1271  0.0929
  380PC     P3116943  -0.229   3.449   2.042 -0.1885  0.2491  0.4216
  380PC     O3216944  -0.351   3.510   2.112  0.4643  0.0262  0.2739
  380PC     C3116945  -0.482   3.464   2.085  0.9826  0.1961  0.5164
  380PC     H1A16946  -0.483   3.356   2.070  0.0741 -0.3147  3.5939
  380PC     H1B16947  -0.553   3.478   2.167 -0.4194 -1.3293 -0.3713
  380PC     C3216948  -0.546   3.554   1.969  0.1741 -0.0151  0.6254
  380PC     H2A16949  -0.470   3.562   1.890 -0.2980 -1.8912 -0.0691
  380PC     H2B16950  -0.632   3.505   1.924  1.1135 -0.4953 -0.7272
  380PC     N3116951  -0.573   3.695   2.010  0.5101  0.2979 -0.8311
  380PC     C3316952  -0.631   3.765   1.891 -0.5999 -1.0958  0.2867
  380PC     H3A16953  -0.704   3.835   1.932 -0.9959 -1.1940 -0.2456
  380PC     H3B16954  -0.548   3.817   1.844  0.3875 -0.4238  2.6189
  380PC     H3C16955  -0.688   3.703   1.822 -3.5126  0.8184  0.7826
  380PC     C3416956  -0.679   3.695   2.122 -0.2666  0.1986 -0.3183
  380PC     H4A16957  -0.638   3.668   2.220  1.2948  0.6367 -0.8152
  380PC     H4B16958  -0.712   3.798   2.131  2.0394  1.0081 -0.2429
  380PC     H4C16959  -0.754   3.621   2.095 -2.3325  1.4874  1.6135
  380PC     C3516960  -0.451   3.765   2.062  0.6250  0.0213  0.0930
  380PC     H5A16961  -0.366   3.743   1.998  0.0138  0.5581 -0.9335
  380PC     H5B16962  -0.433   3.720   2.160  0.9548 -0.5039 -0.2078
  380PC     H5C16963  -0.477   3.870   2.050 -1.1376 -0.4451 -0.5276
  380PC     O3316964  -0.104   3.536   2.063  0.0310 -0.2501  0.2519
  380PC     O3416965  -0.266   3.411   1.909  0.4255  0.4437  0.1200
  380PC     O2116966  -0.155   3.381   2.500 -0.2224 -0.0812  0.3043
  380PC     C2116967  -0.084   3.494   2.524  0.2004 -0.4943 -0.4610
  380PC     O2216968  -0.098   3.596   2.465 -0.4685 -0.5657 -0.3554
  381OL     C1216969   0.015   3.480   2.642  0.9833  0.1326  0.3547
  381OL     H2R16970  -0.007   3.399   2.711  0.2949 -0.2639 -0.3146
  381OL     H2S16971   0.013   3.563   2.713 -1.4811  0.4688 -0.0207
  381OL     C1316972   0.155   3.467   2.586 -0.2479 -0.0732 -0.3939
  381OL     H3R16973   0.194   3.561   2.545 -0.6133 -0.3990 -1.5437
  381OL     H3S16974   0.169   3.394   2.505  0.3405 -0.9675  0.4973
  381OL     C1416975   0.258   3.428   2.693  0.5863 -0.1506  0.4290
  381OL     H4R16976   0.351   3.393   2.646 -1.1374 -2.7540 -1.3679
  381OL     H4S16977   0.226   3.343   2.754  1.2445 -0.3935  0.4511
  381OL     C1516978   0.288   3.546   2.783  0.2403  0.5173 -0.2954
  381OL     H5R16979   0.196   3.590   2.821 -1.0379 -0.1856 -2.4008
  381OL     H5S16980   0.344   3.618   2.724 -0.5590  0.4241 -1.1912
  381OL     C1616981   0.372   3.492   2.904 -0.1069 -0.6944 -0.1812
  381OL     H6R16982   0.461   3.437   2.874 -0.3376 -0.3722 -1.5439
  381OL     H6S16983   0.319   3.426   2.972 -0.4443  1.1016  1.3773
  381OL     C1716984   0.422   3.614   2.990 -0.6383  0.6384  0.2867
  381OL     H7R16985   0.349   3.644   3.064  0.7765  0.5421  1.7906
  381OL     H7S16986   0.458   3.698   2.929  2.2391 -1.3305 -0.9882
  381OL     C1816987   0.540   3.568   3.082 -0.3408  0.4517  0.0439
  381OL     H8R16988   0.612   3.523   3.012  1.6847  1.7750  1.1938
  381OL     H8S16989   0.522   3.495   3.161  1.4870  1.1776  1.1989
  381OL     C1916990   0.607   3.689   3.143 -0.4358 -0.4279 -0.2353
  381OL     H9R16991   0.545   3.778   3.157 -1.8591 -1.0258 -2.2091
  381OL    C11016992   0.739   3.707   3.147  0.4075 -0.6250 -0.6895
  381OL    H10R16993   0.781   3.801   3.185  0.6448 -1.6672  1.8275
  381OL    C11116994   0.843   3.598   3.136  0.4044  0.2453 -0.2476
  381OL    H11R16995   0.897   3.604   3.040 -1.1313  0.8194 -1.1076
  381OL    H11S16996   0.807   3.495   3.139 -0.1385  0.3630  5.0008
  381OL    C11216997   0.950   3.605   3.260  0.5838  0.2138  0.9809
  381OL    H12R16998   0.908   3.588   3.359  1.0088 -3.2512  0.6942
  381OL    H12S16999   0.977   3.710   3.249 -1.0740  0.6172  0.5601
  381OL    C11317000   1.073   3.520   3.235  0.0421  0.3925  0.1597
  381OL    H13R17001   1.123   3.553   3.144 -0.3683 -0.0607 -0.2329
  381OL    H13S17002   1.044   3.415   3.220  0.3520  0.2396  0.6102
  381OL    C11417003   1.168   3.523   3.355 -0.2840  0.5182  0.5784
  381OL    H14R17004   1.128   3.471   3.443  1.4840 -2.0815 -0.0338
  381OL    H14S17005   1.176   3.631   3.366  0.6577  0.5918 -0.6633
  381OL    C11517006   1.311   3.477   3.313  0.1157 -0.4444 -0.2046
  381OL    H15R17007   1.373   3.485   3.403 -2.2517 -0.8160  1.5536
  381OL    H15S17008   1.341   3.555   3.242 -0.3560  1.6272  1.7384
  381OL    C11617009   1.324   3.345   3.242 -0.0103  0.4056  0.3014
  381OL    H16R17010   1.425   3.318   3.210 -0.5895 -1.9162  0.2542
  381OL    H16S17011   1.259   3.350   3.154 -0.1884  1.8774  0.4949
  381OL    C11717012   1.278   3.217   3.329 -0.0290  0.2907 -0.4502
  381OL    H17R17013   1.184   3.222   3.384  0.9486 -1.8566  1.6228
  381OL    H17S17014   1.358   3.205   3.403 -0.0220  1.6768 -0.2191
  381OL    C11817015   1.268   3.086   3.238  0.0419 -0.2788 -0.2667
  381OL    H18R17016   1.238   3.005   3.304 -1.4979  0.2791 -0.2525
  381OL    H18S17017   1.364   3.069   3.187  0.9032  0.8890  0.9026
  381OL    H18T17018   1.194   3.095   3.159 -0.7008 -2.3073  0.1359
  382PA    C11617019   2.587   1.189   3.309 -0.0066  0.0554  0.4064
  382PA    H16R17020   2.601   1.089   3.350 -0.5152 -1.7524 -3.3956
  382PA    H16S17021   2.590   1.261   3.391  2.4352  0.3159  0.1869
  382PA    H16T17022   2.680   1.202   3.252 -0.1388 -0.1127  0.1511
  382PA    C11517023   2.468   1.201   3.213 -0.1669  0.3534 -1.0756
  382PA    H15R17024   2.370   1.192   3.261 -0.4229 -2.5527 -1.9632
  382PA    H15S17025   2.465   1.304   3.177  1.7033  0.8261 -0.0208
  382PA    C11417026   2.473   1.105   3.092  0.4784  0.7830 -0.0255
  382PA    H14R17027   2.402   1.136   3.014 -0.7028 -0.5171  0.4825
  382PA    H14S17028   2.574   1.106   3.050  0.9509  1.9382  1.0725
  382PA    C11317029   2.444   0.958   3.128  0.4204 -0.9288  0.4860
  382PA    H13R17030   2.480   0.893   3.047 -0.6189 -1.9628  0.8152
  382PA    H13S17031   2.487   0.919   3.221  0.1950  0.1925  1.0696
  382PA    C11217032   2.290   0.940   3.142  0.2790  0.0158 -0.3184
  382PA    H12R17033   2.253   0.988   3.233 -0.3457  0.9546 -1.0524
  382PA    H12S17034   2.243   0.999   3.063 -0.5289 -0.6038 -0.3045
  382PA    C11117035   2.250   0.793   3.133  0.1328  0.4049 -0.3765
  382PA    H11R17036   2.311   0.747   3.211 -0.2395 -1.1100 -0.9471
  382PA    H11S17037   2.143   0.772   3.146  0.2295 -0.2542 -0.6584
  382PA    C11017038   2.292   0.714   3.007  0.1316  0.1892  0.4193
  382PA    H10R17039   2.397   0.690   3.025  0.0680  0.0227  0.5741
  382PA    H10S17040   2.230   0.624   3.006  0.2164  0.0557  2.4346
  382PA     C1917041   2.278   0.785   2.868  0.6135  0.1736  0.5285
  382PA     H9R17042   2.170   0.782   2.850  0.7254 -1.8912 -0.0249
  382PA     H9S17043   2.328   0.882   2.868 -2.1509  1.7113 -0.6864
  382PA     C1817044   2.342   0.703   2.756  0.3275 -0.7660  0.1941
  382PA     H8R17045   2.326   0.751   2.659 -1.1582 -2.9192 -0.7016
  382PA     H8S17046   2.449   0.701   2.777  0.4600  0.9719 -0.1750
  382PA     C1717047   2.287   0.558   2.730  0.4706 -0.1541  0.7774
  382PA     H7R17048   2.359   0.499   2.673  0.5796 -1.8267  2.5330
  382PA     H7S17049   2.266   0.513   2.827 -0.6883 -0.7744  0.2519
  382PA     C1617050   2.150   0.555   2.656  0.6024  0.0593  0.0970
  382PA     H6R17051   2.082   0.612   2.720 -2.3031 -0.5867 -2.1753
  382PA     H6S17052   2.174   0.609   2.564  0.9261  0.8352  0.6287
  382PA     C1517053   2.091   0.414   2.641 -0.0679 -0.4946  0.3394
  382PA     H5R17054   2.164   0.356   2.584 -1.1585 -0.5539 -1.0865
  382PA     H5S17055   2.075   0.379   2.743 -0.2135 -1.6322 -0.0623
  382PA     C1417056   1.957   0.424   2.553 -0.7225 -0.7536  0.8548
  382PA     H4R17057   1.922   0.321   2.549  0.0753 -1.0048  0.1461
  382PA     H4S17058   1.879   0.489   2.593 -1.1982 -0.3258 -0.7327
  382PA     C1317059   1.987   0.477   2.411  0.8934 -0.2711  0.5522
  382PA     H3R17060   2.002   0.585   2.403  1.9952 -0.5027 -1.3288
  382PA     H3S17061   2.072   0.417   2.378  1.4812  1.4112 -1.1934
  382PA     C1217062   1.863   0.428   2.329 -0.5792 -0.8723 -0.1852
  382PA     H2R17063   1.872   0.319   2.329 -0.0976 -0.8593 -2.0155
  382PA     H2S17064   1.770   0.471   2.366  0.8248  2.6448 -0.3166
  383PC     C1117065   1.882   0.480   2.188 -0.3997  0.0965  0.3467
  383PC     O1217066   1.943   0.418   2.105  0.1318 -0.2211  0.0264
  383PC     O1117067   1.801   0.582   2.156 -0.7684  0.8448  0.5745
  383PC      C117068   1.815   0.633   2.017 -0.1417  1.2041  0.3021
  383PC      HR17069   1.815   0.550   1.946 -1.4893  1.1181  0.3771
  383PC      HS17070   1.722   0.687   1.999 -1.0373 -0.1175  0.8598
  383PC      C217071   1.934   0.734   1.993  0.6551  0.5148 -0.0582
  383PC      HX17072   1.880   0.813   1.941 -1.4758  0.7065  2.2233
  383PC      C317073   2.051   0.663   1.923  0.8422  0.7357  0.1165
  383PC      HA17074   2.128   0.740   1.918  1.3783  0.3362  1.5970
  383PC      HB17075   2.080   0.582   1.990 -0.2978 -0.1209 -0.3836
  383PC     O3117076   2.014   0.606   1.792 -0.2700 -0.1110  0.0501
  383PC     P3117077   1.999   0.698   1.665 -0.0979  0.1666 -0.0815
  383PC     O3217078   2.141   0.765   1.671 -0.2354  0.1520 -0.3299
  383PC     C3117079   2.260   0.693   1.628  0.0317 -0.1417  0.4781
  383PC     H1A17080   2.349   0.721   1.686  0.2328 -0.2876  0.2393
  383PC     H1B17081   2.247   0.585   1.636 -0.6243  0.0651  3.1661
  383PC     C3217082   2.294   0.749   1.485 -0.6844  0.7299 -0.4174
  383PC     H2A17083   2.373   0.696   1.432  0.7901  0.7322  1.6717
  383PC     H2B17084   2.199   0.750   1.431 -0.8983 -0.6692 -0.1079
  383PC     N3117085   2.346   0.890   1.474  0.2242 -0.5929  0.0255
  383PC     C3317086   2.366   0.928   1.333 -0.6827  0.4905 -0.0784
  383PC     H3A17087   2.419   1.023   1.329  1.4131 -0.5426  1.4615
  383PC     H3B17088   2.429   0.849   1.291  0.6416  1.2016  0.5059
  383PC     H3C17089   2.274   0.930   1.274 -0.2282 -1.6716 -0.9767
  383PC     C3417090   2.240   0.989   1.508  0.0682  0.1820 -1.0322
  383PC     H4A17091   2.207   0.983   1.612 -3.5216  1.2491 -1.9683
  383PC     H4B17092   2.268   1.093   1.488 -0.3290  0.9558  1.9353
  383PC     H4C17093   2.150   0.969   1.450 -0.1372 -1.9790 -0.0344
  383PC     C3517094   2.474   0.916   1.554  0.3098  0.6764  0.4563
  383PC     H5A17095   2.544   0.834   1.535  0.2692  0.2567  2.0258
  383PC     H5B17096   2.451   0.916   1.661 -0.2461 -2.1617  0.4100
  383PC     H5C17097   2.502   1.017   1.524  0.5268  0.1994 -1.0472
  383PC     O3317098   1.996   0.617   1.542  0.4581 -0.5645 -0.3651
  383PC     O3417099   1.891   0.796   1.686  0.3309 -0.4763  0.4965
  383PC     O2117100   1.968   0.791   2.117  0.0682 -0.4054  0.0730
  383PC     C2117101   2.032   0.906   2.121 -0.8212  0.0363 -0.2748
  383PC     O2217102   2.081   0.976   2.031 -0.0191  0.3554  0.1654
  384OL     C1217103   2.045   0.953   2.270 -0.5746 -0.2739  0.1211
  384OL     H2R17104   2.126   0.898   2.320 -1.2446 -2.0205 -0.6130
  384OL     H2S17105   1.967   0.912   2.334 -1.4350  0.6517 -0.3214
  384OL     C1317106   2.043   1.104   2.286 -0.7489 -0.1413  0.5283
  384OL     H3R17107   1.939   1.130   2.268 -0.6716 -0.6653 -0.8162
  384OL     H3S17108   2.104   1.155   2.211 -0.8401  3.2340  2.5455
  384OL     C1417109   2.084   1.157   2.423  0.5509  0.4159  0.5915
  384OL     H4R17110   2.136   1.252   2.415 -0.6311  0.9204 -2.5507
  384OL     H4S17111   2.163   1.090   2.458  0.8779  1.0899  1.1743
  384OL     C1517112   1.967   1.144   2.528  0.0671  0.0746  0.1447
  384OL     H5R17113   1.880   1.095   2.485  1.9392 -0.5173 -3.3819
  384OL     H5S17114   1.932   1.241   2.564 -0.7461  0.3947 -1.3931
  384OL     C1617115   1.995   1.057   2.649  0.0861 -0.0525 -0.2194
  384OL     H6R17116   2.091   1.092   2.687 -0.9381  0.2048  2.2775
  384OL     H6S17117   2.002   0.954   2.613 -0.9307  0.4478 -1.9970
  384OL     C1717118   1.878   1.073   2.750 -0.0440 -0.8228 -0.1075
  384OL     H7R17119   1.779   1.054   2.708  0.0442  1.7095 -1.6918
  384OL     H7S17120   1.875   1.181   2.768  0.8623 -0.5415 -1.4413
  384OL     C1817121   1.904   0.998   2.883  0.3000 -0.0932  0.1196
  384OL     H8R17122   2.000   1.028   2.927  0.3790  1.8538 -1.2325
  384OL     H8S17123   1.885   0.893   2.861 -1.1044  0.4621 -1.4561
  384OL     C1917124   1.805   1.031   2.988 -0.4210  0.6170  0.2879
  384OL     H9R17125   1.752   1.124   2.974  2.3341  1.8087 -4.0407
  384OL    C11017126   1.762   0.952   3.089  0.1272 -0.4193  0.2698
  384OL    H10R17127   1.680   0.981   3.155  0.4786  2.5045 -0.4728
  384OL    C11117128   1.820   0.820   3.133  0.0632 -0.3886  0.0946
  384OL    H11R17129   1.920   0.805   3.093  0.6882 -1.9418  2.0800
  384OL    H11S17130   1.757   0.742   3.090 -1.1487  1.3195 -1.3781
  384OL    C11217131   1.826   0.809   3.286 -0.3393  0.4373 -0.0226
  384OL    H12R17132   1.725   0.803   3.326  0.3219 -2.2359  1.4965
  384OL    H12S17133   1.886   0.890   3.328 -1.6792  0.4668  1.9862
  384OL    C11317134   1.893   0.673   3.309 -0.4322  0.6056 -0.0528
  384OL    H13R17135   2.000   0.671   3.284 -0.4861 -1.9825 -0.2595
  384OL    H13S17136   1.852   0.597   3.242  1.1734 -0.2092 -0.1693
  384OL    C11417137   1.902   0.618   3.456 -0.2478 -0.5410  0.9267
  384OL    H14R17138   1.912   0.707   3.517  1.6644 -0.9124  1.2035
  384OL    H14S17139   1.981   0.543   3.462 -0.4905 -0.8342  0.5343
  384OL    C11517140   1.767   0.554   3.498  0.6318 -0.5331  0.0045
  384OL    H15R17141   1.764   0.451   3.462  3.1787 -1.6036  2.5068
  384OL    H15S17142   1.683   0.607   3.452  0.9411  1.7558  1.9539
  384OL    C11617143   1.727   0.550   3.649  0.0065  0.1679 -0.2700
  384OL    H16R17144   1.817   0.518   3.701 -0.0650 -0.9839 -0.8223
  384OL    H16S17145   1.646   0.479   3.664  0.1751 -0.2165 -1.0923
  384OL    C11717146   1.688   0.688   3.696  0.0886 -0.0242  0.0886
  384OL    H17R17147   1.600   0.720   3.640 -0.9694 -0.5479  1.4100
  384OL    H17S17148   1.769   0.758   3.674 -0.6432  0.7561 -0.1527
  384OL    C11817149   1.652   0.694   3.844 -0.4977 -0.5572 -0.2617
  384OL    H18R17150   1.577   0.616   3.856 -1.2058  0.1888  0.3144
  384OL    H18S17151   1.615   0.793   3.873  2.0491  0.8276 -1.3750
  384OL    H18T17152   1.735   0.676   3.912 -0.6029 -2.7562 -0.6605
  385WAT      O17153   1.599   4.011   0.874 -0.2212  0.5559 -0.6368
  385WAT     H117154   1.531   4.064   0.833  0.7497  2.3473 -0.0496
  385WAT     H217155   1.632   4.065   0.946  2.7970  0.3939 -1.7559
  386WAT      O17156   3.642   4.466   0.165  0.2957  0.2418  0.0066
  386WAT     H117157   3.607   4.420   0.089  1.3936  0.5378 -0.7109
  386WAT     H217158   3.640   4.401   0.235 -1.0631  0.0678 -0.1617
  387WAT      O17159   5.708   1.327   0.574 -0.0600  0.4636 -0.0705
  387WAT     H117160   5.687   1.240   0.542  1.3453  0.2204 -0.4016
  387WAT     H217161   5.787   1.315   0.627  0.8462  1.6828 -1.0758
  388WAT      O17162   4.365   5.146   0.816 -0.0913  0.0432  0.5701
  388WAT     H117163   4.354   5.062   0.859 -0.3280  0.8676  2.1925
  388WAT     H217164   4.276   5.174   0.793  0.1290 -1.1820 -2.1713
  389WAT      O17165   4.354   3.025   0.675  0.3433 -0.2302  0.3263
  389WAT     H117166   4.260   3.038   0.686  0.4744  2.0005 -0.7106
  389WAT     H217167   4.375   3.069   0.592  2.4456  0.2117  1.0351
  390WAT      O17168   4.763   5.046   0.400  0.1433  0.0570  0.3437
  390WAT     H117169   4.688   5.001   0.362  0.1184  0.4388 -0.0646
  390WAT     H217170   4.839   5.009   0.355  0.0937  0.7131 -0.2867
  391WAT      O17171   4.858   2.284   6.117  0.4065  0.0713 -0.0900
  391WAT     H117172   4.848   2.190   6.128 -0.7006  0.0709 -0.8500
  391WAT     H217173   4.934   2.308   6.170 -0.8102 -0.8368  2.1649
  392WAT      O17174   5.923   0.077   1.747 -0.2192  0.1998 -0.4521
  392WAT     H117175   5.988   0.146   1.762 -1.4355  2.8615 -5.3642
  392WAT     H217176   5.849   0.101   1.804  1.8722 -1.5345  3.3897
  393WAT      O17177   1.620   5.461   7.666 -0.1697 -0.1935  0.4280
  393WAT     H117178   1.713   5.483   7.657 -0.6950  1.3255 -2.0063
  393WAT     H217179   1.588   5.521   7.733  0.3230  0.1601  0.3564
  394WAT      O17180   4.117   1.297   2.304  0.2309  0.5604  0.1142
  394WAT     H117181   4.158   1.345   2.376  3.3123 -1.0393 -0.4072
  394WAT     H217182   4.126   1.205   2.328 -2.4380  0.0668 -0.4739
  395WAT      O17183   5.242   1.425   7.634 -0.0027  0.0668  0.0549
  395WAT     H117184   5.196   1.493   7.585  0.5663  0.5687  0.2027
  395WAT     H217185   5.316   1.401   7.579  0.8611  0.9024  0.8093
  396WAT      O17186   4.135   4.416   0.423 -0.5561  0.5059  0.1216
  396WAT     H117187   4.117   4.373   0.339  0.9789  0.2155 -0.0783
  396WAT     H217188   4.174   4.347   0.477  0.4942  1.2530  0.3267
  397WAT      O17189   0.678   3.030   6.123  0.0604  0.0775 -0.3664
  397WAT     H117190   0.594   3.043   6.080 -1.1024 -1.1615  1.3761
  397WAT     H217191   0.676   3.089   6.198  0.4995 -0.3481 -0.0065
  398WAT      O17192   2.211   1.087   5.920 -0.3364  0.1719  0.0890
  398WAT     H117193   2.159   1.094   5.840 -0.2100 -2.9999 -0.4105
  398WAT     H217194   2.287   1.144   5.905 -0.0118 -0.7847 -2.3577
  399WAT      O17195   0.447   5.872   0.112 -0.1314 -0.7715 -0.8230
  399WAT     H117196   0.435   5.945   0.172  0.9527 -0.9860 -0.3183
  399WAT     H217197   0.361   5.831   0.106 -0.3864 -0.3926  0.1185
  400WAT      O17198   5.218   1.441   6.105 -0.1224 -0.2978  0.1865
  400WAT     H117199   5.126   1.464   6.089  0.4310  0.8232 -1.7035
  400WAT     H217200   5.263   1.525   6.109  1.0114 -0.8764 -0.1617
  401WAT      O17201   0.628   0.054   0.588  0.7931  0.1807 -0.3528
  401WAT     H117202   0.625  -0.041   0.579 -1.3848 -0.0601  1.8320
  401WAT     H217203   0.703   0.071   0.646 -0.6514 -0.5714  1.8498
  402WAT      O17204   4.139   5.111   7.383  0.1114  0.1707 -0.8180
  402WAT     H117205   4.199   5.060   7.330  0.6413  1.9354 -1.9787
  402WAT     H217206   4.168   5.097   7.473  2.2669  0.9450 -1.3481
  403WAT      O17207   6.120   3.310   7.664  0.1638 -0.2075  0.0154
  403WAT     H117208   6.036   3.322   7.709  0.4010 -2.0933  1.0982
  403WAT     H217209   6.096   3.289   7.574 -0.4886  0.0117  0.1262
  404WAT      O17210   4.028   3.865   2.115  0.3043 -0.5200  0.0929
  404WAT     H117211   4.068   3.810   2.048  1.2484 -1.8460  1.6610
  404WAT     H217212   4.018   3.807   2.191  0.6561  1.2818  1.5978
  405WAT      O17213   3.764   3.054   7.245 -0.4083  0.1088 -0.0483
  405WAT     H117214   3.729   3.126   7.192 -2.5382 -1.4594 -0.9183
  405WAT     H217215   3.835   3.018   7.193 -1.1314 -0.1112 -0.9159
  406WAT      O17216   2.066   1.477   7.554  0.0563 -0.4057 -0.2528
  406WAT     H117217   2.114   1.406   7.598 -0.8384 -1.5487 -1.0668
  406WAT     H217218   2.129   1.513   7.492  0.2999 -0.9557 -0.3298
  407WAT      O17219   5.511   3.669   7.215 -0.1115 -0.0375  0.0239
  407WAT     H117220   5.540   3.634   7.130  2.1841 -1.2126  1.2240
  407WAT     H217221   5.495   3.762   7.198  1.7111  0.0686 -1.3891
  408WAT      O17222   4.934   4.872   1.607 -0.6317 -0.0308  0.0166
  408WAT     H117223   5.014   4.908   1.571 -0.0846 -0.8372  0.4077
  408WAT     H217224   4.872   4.871   1.534  0.3864 -1.4440 -0.8700
  409WAT      O17225   0.566   2.375   7.192 -0.2540 -0.0341  0.2291
  409WAT     H117226   0.589   2.449   7.249  1.4322  0.0027 -0.4125
  409WAT     H217227   0.506   2.323   7.244  0.3190  0.6016  1.6090
  410WAT      O17228   0.193   6.181   1.211 -0.2763  0.2263 -0.0329
  410WAT     H117229   0.138   6.110   1.245  0.7481 -0.0543  1.1289
  410WAT     H217230   0.281   6.158   1.239  0.0597  2.0806  0.5962
  411WAT      O17231   0.101   3.942   6.999 -0.4889  1.0317 -0.4441
  411WAT     H117232   0.148   3.889   6.935 -1.7807 -1.4817  0.5457
  411WAT     H217233   0.147   4.026   6.999  2.4916 -0.4337 -1.2369
  412WAT      O17234   4.885   0.882   0.359  0.5587 -0.4082 -0.1150
  412WAT     H117235   4.865   0.820   0.428  1.1195  2.3075  2.6959
  412WAT     H217236   4.981   0.883   0.354  0.5975  0.7199  0.4370
  413WAT      O17237   5.703   5.278   1.215  0.1842  0.2238  0.0212
  413WAT     H117238   5.701   5.306   1.124  0.4090  1.0195  0.2525
  413WAT     H217239   5.758   5.343   1.259 -0.3934  0.1817  0.8317
  414WAT      O17240   5.971   1.527   6.539 -0.4586  0.4333 -0.5774
  414WAT     H117241   5.950   1.469   6.465  0.8598 -0.2047 -0.4913
  414WAT     H217242   5.997   1.467   6.609  2.8087  1.0973 -1.0712
  415WAT      O17243   0.469   0.884   7.696 -0.4495 -0.2407 -0.0220
  415WAT     H117244   0.516   0.872   7.613 -0.6725  0.5894 -0.2852
  415WAT     H217245   0.449   0.796   7.725  1.1880 -0.6264  0.0494
  416WAT      O17246   2.500   5.615   0.286  0.2468  0.0836  0.1129
  416WAT     H117247   2.551   5.679   0.336 -0.1489  0.4277  0.0815
  416WAT     H217248   2.525   5.631   0.195  0.8579 -0.4448  0.1810
  417WAT      O17249   3.988   0.317   5.846 -0.6227 -0.0324  0.4656
  417WAT     H117250   3.943   0.262   5.782  0.7992 -1.8705  0.9864
  417WAT     H217251   4.060   0.358   5.797 -0.3715 -0.3410  0.5785
  418WAT      O17252   4.250   4.293   6.445  0.2301  0.6813 -0.4807
  418WAT     H117253   4.309   4.361   6.411  0.8512 -0.2254 -1.2692
  418WAT     H217254   4.308   4.232   6.491 -0.2249  0.3222 -0.3853
  419WAT      O17255   0.444   1.699   7.033  0.1475  0.2439 -1.0377
  419WAT     H117256   0.406   1.614   7.012  1.2424 -0.0561 -1.8843
  419WAT     H217257   0.508   1.681   7.101  0.8536  0.2623 -1.6780
  420WAT      O17258   4.419   3.828   7.294  0.4857  0.7728  0.6754
  420WAT     H117259   4.460   3.850   7.377  1.2243  1.2114  0.2086
  420WAT     H217260   4.432   3.905   7.239 -2.0317  1.4148  0.8552
  421WAT      O17261   5.242   2.120   7.725  0.4160  0.2767 -0.4410
  421WAT     H117262   5.248   2.180   7.799 -0.3215  1.8181 -1.5820
  421WAT     H217263   5.150   2.121   7.700  0.1939 -2.1116  0.0893
  422WAT      O17264   6.100   1.494   0.467 -0.5366  0.2887 -0.3242
  422WAT     H117265   6.082   1.571   0.521 -1.3549  0.3101 -0.6198
  422WAT     H217266   6.177   1.518   0.416  0.4416  0.1596  1.0462
  423WAT      O17267   1.421   1.153   7.815  1.2392 -0.4108  0.0538
  423WAT     H117268   1.327   1.170   7.808  0.7320 -2.5245  0.7835
  423WAT     H217269   1.456   1.231   7.857  0.0632  1.0095 -1.4685
  424WAT      O17270   1.727   1.319   0.819 -0.0243  0.4420 -0.4494
  424WAT     H117271   1.775   1.387   0.866  1.6263  0.5038 -2.1581
  424WAT     H217272   1.794   1.263   0.781 -1.3175 -0.3592 -1.6651
  425WAT      O17273   0.633   5.194   0.134  0.6167 -0.2649 -0.3141
  425WAT     H117274   0.649   5.112   0.087 -1.7239 -0.4311 -0.9569
  425WAT     H217275   0.547   5.183   0.174  1.2524  1.0370  1.5367
  426WAT      O17276   2.581   3.434   7.640 -0.4093 -0.1399  0.1858
  426WAT     H117277   2.488   3.444   7.622 -0.1682 -0.5454 -1.4827
  426WAT     H217278   2.585   3.408   7.732 -1.8029  1.6799  0.8297
  427WAT      O17279   3.489   2.415   1.764  0.1893 -0.1119 -0.0804
  427WAT     H117280   3.425   2.476   1.802  1.7652  2.0332 -0.7171
  427WAT     H217281   3.439   2.334   1.750 -2.0813  1.1151  0.4628
  428WAT      O17282   2.605   1.170   1.762  0.1879  0.2357 -1.2185
  428WAT     H117283   2.669   1.100   1.770 -2.8685 -2.7733 -0.6270
  428WAT     H217284   2.545   1.156   1.835 -1.1869  2.8768 -1.7127
  429WAT      O17285   2.622   3.568   7.254 -0.5475  0.2113  0.5616
  429WAT     H117286   2.612   3.650   7.302 -2.1184 -0.1702  0.9284
  429WAT     H217287   2.539   3.522   7.266 -0.3667 -0.6470 -1.1358
  430WAT      O17288   2.446   1.908   1.416 -0.1507 -0.6991 -0.5802
  430WAT     H117289   2.395   1.844   1.364  0.7348 -2.4053  0.5660
  430WAT     H217290   2.399   1.914   1.499 -0.3753  0.3957 -0.7706
  431WAT      O17291   5.731   1.875   5.373  0.2696 -0.2498 -0.0424
  431WAT     H117292   5.807   1.846   5.424  0.6837 -1.1072 -1.1005
  431WAT     H217293   5.670   1.802   5.377 -0.5308  0.4494  0.8251
  432WAT      O17294   1.492   2.329   7.225  0.0465  0.2177 -0.2838
  432WAT     H117295   1.563   2.376   7.268 -0.0074 -0.7232  0.8901
  432WAT     H217296   1.521   2.238   7.224 -0.0649  0.1651 -2.0623
  433WAT      O17297   2.541   2.193   7.081 -0.1847 -0.4864  0.1434
  433WAT     H117298   2.543   2.157   6.992 -1.1045  2.5190 -1.2125
  433WAT     H217299   2.457   2.162   7.117 -0.8973  0.1343 -0.9260
  434WAT      O17300   5.295   4.152   6.623  0.4588 -0.3211  0.1581
  434WAT     H117301   5.346   4.071   6.619 -1.1120 -1.3116 -1.4775
  434WAT     H217302   5.228   4.141   6.555 -0.9760  1.5620  1.1861
  435WAT      O17303   2.837   6.156   0.326  0.2479  0.0033 -0.0770
  435WAT     H117304   2.853   6.245   0.357 -0.2782 -0.1067  0.5072
  435WAT     H217305   2.766   6.165   0.262  1.4102  0.2475 -1.3962
  436WAT      O17306   0.258   0.786   7.498  0.4367  0.3676  0.1210
  436WAT     H117307   0.177   0.833   7.475  1.4600  1.3369 -1.7322
  436WAT     H217308   0.230   0.722   7.564 -1.6660  1.2664  0.1994
  437WAT      O17309   3.955   6.104   7.662 -0.2217 -0.1543 -0.2130
  437WAT     H117310   3.885   6.117   7.598  0.5492  0.5400 -0.9448
  437WAT     H217311   3.956   6.010   7.678 -1.6849 -0.1212  0.2529
  438WAT      O17312   5.366   1.074   6.253  0.1978  0.2973 -0.2049
  438WAT     H117313   5.309   1.130   6.305 -0.7416 -0.4038 -0.4336
  438WAT     H217314   5.451   1.118   6.254  0.1830  0.3782  1.7740
  439WAT      O17315   2.437   1.040   0.411  0.2040  0.2790 -0.3027
  439WAT     H117316   2.530   1.028   0.390  0.1375 -1.3134  0.1844
  439WAT     H217317   2.435   1.116   0.470  1.7782 -2.0871  3.1447
  440WAT      O17318   1.904   4.814   1.305  0.6611  0.1675 -0.5798
  440WAT     H117319   1.981   4.761   1.326  0.8825 -0.0450 -1.8709
  440WAT     H217320   1.834   4.777   1.359  1.2422 -0.2544 -0.1085
  441WAT      O17321   0.915   6.119   6.667 -0.0086  0.1030 -0.0941
  441WAT     H117322   0.866   6.188   6.622  0.4987 -0.2151 -1.1862
  441WAT     H217323   0.880   6.118   6.756  0.4653  2.2457  0.1572
  442WAT      O17324   4.850   3.573   7.659  0.2075 -0.0262  0.5391
  442WAT     H117325   4.900   3.554   7.739  0.5509  1.0577  0.6068
  442WAT     H217326   4.796   3.649   7.682  0.3334  0.3170 -0.2539
  443WAT      O17327   3.183   4.346   1.155 -0.9188 -1.3434  0.6309
  443WAT     H117328   3.178   4.261   1.113  0.8859 -0.8144 -0.7690
  443WAT     H217329   3.137   4.406   1.097  1.5781 -0.6116 -0.7621
  444WAT      O17330   0.962   4.485   6.540 -0.0992 -1.2336  0.1450
  444WAT     H117331   1.013   4.536   6.603 -0.8710  1.6606 -1.3932
  444WAT     H217332   1.026   4.454   6.477  0.1469 -0.3421 -0.0488
  445WAT      O17333   0.269   5.905   6.093  0.0941 -0.6307 -0.3689
  445WAT     H117334   0.287   5.999   6.095  0.7124 -0.7541 -0.0191
  445WAT     H217335   0.271   5.882   6.000  0.7154 -0.4412 -0.4071
  446WAT      O17336   4.667   3.094   6.107 -0.0271 -0.2932 -0.4366
  446WAT     H117337   4.623   3.011   6.089  1.8510 -1.8230  1.5409
  446WAT     H217338   4.744   3.070   6.159  0.4959  2.7232  0.3830
  447WAT      O17339   0.946   1.071   1.335 -0.3785 -0.2374 -0.4146
  447WAT     H117340   0.885   1.002   1.360 -1.6407  0.8329 -0.4035
  447WAT     H217341   0.892   1.150   1.328  0.9602  0.7041 -0.6999
  448WAT      O17342   2.429   2.751   5.657 -0.8460 -0.1867 -0.4280
  448WAT     H117343   2.460   2.836   5.628 -0.3339  1.1913  3.5680
  448WAT     H217344   2.335   2.752   5.638 -0.6855  0.8374 -1.2723
  449WAT      O17345   6.036   4.759   6.908  0.2213  0.2337 -0.1998
  449WAT     H117346   6.104   4.816   6.870  0.1495 -0.2380 -1.0416
  449WAT     H217347   5.957   4.813   6.906  0.4295  0.5603  0.1979
  450WAT      O17348   4.856   0.973   7.841  0.4852  0.6491  0.0274
  450WAT     H117349   4.774   0.959   7.794  0.3441  0.3224  0.3644
  450WAT     H217350   4.851   0.914   7.916  1.6044 -0.3853 -0.6707
  451WAT      O17351   4.668   1.333   7.481  0.2444  0.2801  0.1486
  451WAT     H117352   4.760   1.326   7.506  0.1427 -2.9445  0.0021
  451WAT     H217353   4.654   1.259   7.421 -2.2017  1.3050 -0.6333
  452WAT      O17354   1.143   1.582   6.235 -0.2972 -0.1004  0.2801
  452WAT     H117355   1.105   1.566   6.149 -0.8139  1.5569  0.1594
  452WAT     H217356   1.199   1.659   6.223 -0.1749 -0.0006  1.3627
  453WAT      O17357   4.373   1.295   6.409  0.2760 -0.0604  0.0620
  453WAT     H117358   4.413   1.295   6.496  0.7993  0.4345 -0.1736
  453WAT     H217359   4.441   1.259   6.352 -0.1086 -0.4956 -0.1265
  454WAT      O17360   2.378   3.856   1.160 -0.0302  0.0655  0.1501
  454WAT     H117361   2.375   3.788   1.227  0.0596 -0.6387 -0.5412
  454WAT     H217362   2.372   3.938   1.208 -3.3440 -0.4515  0.8461
  455WAT      O17363   0.257   4.097   0.989  0.3392 -0.1457  0.2067
  455WAT     H117364   0.255   4.010   0.948  0.5773  0.3378 -0.8789
  455WAT     H217365   0.261   4.079   1.083  0.2972 -1.3058  0.0079
  456WAT      O17366   3.905   1.723   0.194  0.1961  0.7622 -0.0874
  456WAT     H117367   3.945   1.661   0.133 -0.4882  1.0586 -0.8655
  456WAT     H217368   3.933   1.694   0.281 -1.2420 -1.5020 -0.3224
  457WAT      O17369   1.806   3.983   6.061  0.4636  0.3324  0.4021
  457WAT     H117370   1.752   4.033   6.123  1.1548  1.3795  0.1874
  457WAT     H217371   1.792   4.026   5.977  0.6661 -0.1703  0.1104
  458WAT      O17372   5.349   4.062   5.596  0.3308  0.2548 -0.0451
  458WAT     H117373   5.406   3.985   5.592 -0.7785 -0.5462 -1.7209
  458WAT     H217374   5.264   4.027   5.621 -0.0677  0.9974 -0.3288
  459WAT      O17375   4.324   2.446   1.394  0.2794  0.2982 -0.0214
  459WAT     H117376   4.363   2.498   1.324  2.8810 -1.2469  0.1432
  459WAT     H217377   4.378   2.466   1.471 -0.5608 -0.3672  0.7585
  460WAT      O17378   1.263   2.854   5.768 -0.0930  0.2220  0.1465
  460WAT     H117379   1.282   2.862   5.674 -1.6241  1.1090 -0.1171
  460WAT     H217380   1.296   2.935   5.806 -1.8779  1.0953 -0.0823
  461WAT      O17381   2.211   0.013   2.069  0.3330 -0.0162  0.5006
  461WAT     H117382   2.223  -0.077   2.100  1.8975 -0.0177  0.0005
  461WAT     H217383   2.273   0.021   1.997 -1.0773  0.9207 -0.6589
  462WAT      O17384   2.681   6.067   7.843  0.8346 -0.0027 -0.1163
  462WAT     H117385   2.669   6.070   7.938 -0.3397 -1.6502 -0.1657
  462WAT     H217386   2.766   6.025   7.831  0.7149 -0.3437  0.2031
  463WAT      O17387   2.854   2.773   0.954  0.1373 -0.0923  0.1100
  463WAT     H117388   2.871   2.861   0.987 -0.6211  0.3517 -0.6535
  463WAT     H217389   2.941   2.735   0.939  0.4759  0.9022 -0.5269
  464WAT      O17390   0.243   0.107   7.803 -0.1207 -0.3094  0.3708
  464WAT     H117391   0.203   0.067   7.880  0.9967 -0.5432  0.8429
  464WAT     H217392   0.283   0.187   7.835  0.6798 -0.5967  0.1285
  465WAT      O17393   4.994   0.488   7.544  0.0847  0.4456 -0.0289
  465WAT     H117394   5.054   0.552   7.505  2.1731 -0.8069  0.9341
  465WAT     H217395   5.020   0.405   7.505  0.8858 -0.5290  2.4197
  466WAT      O17396   2.181   1.259   1.062 -0.1935  0.1482  0.4546
  466WAT     H117397   2.177   1.174   1.018 -1.4679 -0.3246  1.4130
  466WAT     H217398   2.274   1.269   1.086 -0.2666 -1.7524  1.7393
  467WAT      O17399   0.898   5.849   1.222  0.2052  0.0436  0.3693
  467WAT     H117400   0.907   5.878   1.131  4.2887 -1.3692  0.1374
  467WAT     H217401   0.825   5.787   1.220 -0.7729  1.1569 -1.5625
  468WAT      O17402   4.871   4.377   7.882 -0.1357  0.6564  0.5403
  468WAT     H117403   4.830   4.462   7.902  1.1488  1.0822  1.5083
  468WAT     H217404   4.965   4.393   7.893  0.2639 -0.4558 -0.9990
  469WAT      O17405   0.674   3.442   2.096  0.1436  0.1126 -0.3180
  469WAT     H117406   0.700   3.379   2.030  1.4736 -1.2843  1.4332
  469WAT     H217407   0.611   3.394   2.151 -1.0119  1.2697 -0.5753
  470WAT      O17408   5.306   3.054   0.281  0.1952  0.3362 -0.1953
  470WAT     H117409   5.308   2.967   0.319  0.0915  1.2606  2.0852
  470WAT     H217410   5.396   3.070   0.252  0.9155  0.4997  1.9754
  471WAT      O17411   3.161   6.065   6.406  0.1536  0.9829 -0.1292
  471WAT     H117412   3.149   6.157   6.384  0.0922  0.9811 -0.1039
  471WAT     H217413   3.139   6.018   6.326 -1.3768  0.8977  0.3069
  472WAT      O17414   1.073   0.529   0.515  0.0863 -0.1600  0.0624
  472WAT     H117415   0.979   0.512   0.522  0.0003  0.3169  0.1333
  472WAT     H217416   1.079   0.623   0.496  0.5987  0.3216  2.2732
  473WAT      O17417   5.096   2.062   0.887  0.0934 -0.1946 -0.0843
  473WAT     H117418   5.175   2.050   0.940  1.0624  1.3499 -1.1049
  473WAT     H217419   5.102   2.151   0.853 -2.6409  0.3424  0.6242
  474WAT      O17420   1.441   5.071   1.244 -0.5568 -0.5894 -0.8743
  474WAT     H117421   1.535   5.086   1.243 -0.6641  0.8028  1.8694
  474WAT     H217422   1.410   5.111   1.163  0.8708  1.9222 -0.2766
  475WAT      O17423   5.422   3.858   0.039  0.1578  0.4766  0.2452
  475WAT     H117424   5.419   3.940   0.088 -1.5180 -0.3379  1.6048
  475WAT     H217425   5.494   3.870  -0.023  1.0129  2.3377  1.5053
  476WAT      O17426   1.795   2.700   0.773 -0.7217 -0.2219 -0.0124
  476WAT     H117427   1.726   2.635   0.781 -1.2412  0.2403 -0.6275
  476WAT     H217428   1.761   2.764   0.710 -0.8109  1.3811  1.6016
  477WAT      O17429   1.589   6.185   6.758 -0.3193  0.6062 -0.1289
  477WAT     H117430   1.496   6.207   6.755 -0.0903  2.2342  2.2202
  477WAT     H217431   1.633   6.268   6.775  1.5007 -0.2915 -0.2193
  478WAT      O17432   2.766   5.169   6.236  0.4090  0.2804 -0.8937
  478WAT     H117433   2.706   5.243   6.242 -0.3372 -0.1875 -2.1157
  478WAT     H217434   2.793   5.152   6.326 -2.1361 -0.1443 -0.1318
  479WAT      O17435   5.839   3.830   7.607  0.4660 -0.5062 -0.2905
  479WAT     H117436   5.816   3.806   7.517  1.1612  1.0143 -0.9014
  479WAT     H217437   5.909   3.768   7.630 -2.0816 -3.3147  0.5951
  480WAT      O17438   3.582   2.666   7.751 -0.0592 -0.2327  0.1038
  480WAT     H117439   3.566   2.648   7.658 -0.3682 -1.1757  0.3319
  480WAT     H217440   3.495   2.668   7.790 -0.0948  2.2628  0.0379
  481WAT      O17441   3.910   0.464   2.325  0.3868  0.4345 -0.1985
  481WAT     H117442   3.973   0.411   2.278  0.7878 -0.5520  1.3801
  481WAT     H217443   3.956   0.546   2.344  1.4974 -0.5406  1.5499
  482WAT      O17444   0.813   3.783   6.313  0.3126  0.3411  0.0480
  482WAT     H117445   0.795   3.873   6.288  0.5641  0.6007  0.7817
  482WAT     H217446   0.795   3.780   6.407  2.0297  0.0846  0.4041
  483WAT      O17447   4.196   3.823   6.610 -0.1945 -0.1788 -0.3963
  483WAT     H117448   4.136   3.839   6.536 -0.8299 -1.8383 -0.2853
  483WAT     H217449   4.159   3.873   6.682 -0.7012 -0.1241 -0.6882
  484WAT      O17450   3.140   4.881   0.313  0.3058 -0.5788  0.2255
  484WAT     H117451   3.216   4.929   0.347  1.1172 -0.4739 -1.6281
  484WAT     H217452   3.074   4.890   0.381  0.6382  2.6220  0.2629
  485WAT      O17453   6.065   0.680   5.693 -0.0507 -0.3303 -0.0048
  485WAT     H117454   6.009   0.640   5.759 -1.3994  0.5908 -0.5455
  485WAT     H217455   6.127   0.733   5.744  0.7204 -1.7865  0.6267
  486WAT      O17456   4.938   2.729   7.261  0.5216  0.0242  0.6328
  486WAT     H117457   5.005   2.673   7.301  1.6152 -0.2433 -1.4272
  486WAT     H217458   4.954   2.816   7.298  2.6042  0.1492 -0.3914
  487WAT      O17459   2.489   5.764   2.162  1.0293  0.3530 -0.0870
  487WAT     H117460   2.552   5.711   2.211  0.8717  0.1111 -0.1430
  487WAT     H217461   2.540   5.838   2.129  0.9262  1.1207  1.3670
  488WAT      O17462   2.522   5.521   7.603 -0.2106  0.3248 -0.8187
  488WAT     H117463   2.615   5.500   7.602  0.2158  1.8700  0.9492
  488WAT     H217464   2.512   5.587   7.534 -0.4224 -1.2051 -2.3217
  489WAT      O17465   5.024   4.259   0.217  0.0674  0.5510 -0.0519
  489WAT     H117466   5.088   4.254   0.287  0.9561 -3.3031 -0.9173
  489WAT     H217467   4.941   4.276   0.261  0.9993  1.1136  1.5653
  490WAT      O17468   0.140   2.830   7.933 -0.4801 -0.0387 -0.0186
  490WAT     H117469   0.167   2.908   7.885 -0.7116  0.0832  0.0462
  490WAT     H217470   0.169   2.757   7.879  2.0102  0.0145  1.1078
  491WAT      O17471   5.462   2.729   7.623 -0.1475  0.2744  0.1356
  491WAT     H117472   5.556   2.718   7.635  0.0613  1.0644 -0.6558
  491WAT     H217473   5.447   2.823   7.633 -0.9301  0.0908  0.7512
  492WAT      O17474   5.943   1.348   7.641 -0.3032  0.3581  0.2739
  492WAT     H117475   5.933   1.264   7.595 -1.0691  0.6400 -0.0888
  492WAT     H217476   5.875   1.404   7.604  0.9164  1.5079 -0.3048
  493WAT      O17477   5.554   5.641   1.181  0.4319 -0.2826  0.2313
  493WAT     H117478   5.500   5.565   1.162  1.6756 -1.1567  0.1012
  493WAT     H217479   5.601   5.620   1.261  0.2571  0.6389  0.5903
  494WAT      O17480   3.289   1.197   6.610  0.2419 -0.0898  0.3343
  494WAT     H117481   3.279   1.264   6.542 -0.6155 -2.1836 -1.7399
  494WAT     H217482   3.372   1.218   6.652  1.1859  0.9145 -1.8556
  495WAT      O17483   4.338   4.035   1.358  0.0622  0.1416  0.0726
  495WAT     H117484   4.288   4.094   1.301  0.8160 -1.3802 -2.3236
  495WAT     H217485   4.292   3.952   1.352 -0.5961  0.2073  2.8743
  496WAT      O17486   3.517   0.614   6.804 -0.2224  0.5809  0.2031
  496WAT     H117487   3.500   0.537   6.750  0.8572 -0.4060  1.2133
  496WAT     H217488   3.601   0.597   6.845 -0.5235  1.7628  1.4068
  497WAT      O17489   0.289   4.776   7.515 -0.6595  0.2872 -0.5526
  497WAT     H117490   0.319   4.768   7.425  1.2389 -0.1071  0.0685
  497WAT     H217491   0.279   4.686   7.546 -0.1954  0.4026 -0.0400
  498WAT      O17492   5.483   3.169   6.305 -0.0142 -0.4264 -0.1855
  498WAT     H117493   5.406   3.115   6.288 -0.9661  0.5501  0.8517
  498WAT     H217494   5.520   3.187   6.218 -0.0829 -2.0970 -0.6006
  499WAT      O17495   3.617   1.491   6.863  0.3143 -0.7062  0.1522
  499WAT     H117496   3.532   1.478   6.906  0.3553  1.8975  1.1957
  499WAT     H217497   3.672   1.531   6.930  2.1111 -1.4777 -0.7862
  500WAT      O17498   3.345   1.265   7.782 -0.3013 -0.0128  0.5516
  500WAT     H117499   3.255   1.291   7.762 -0.9998 -3.6074 -2.1541
  500WAT     H217500   3.400   1.322   7.727 -1.3968 -1.0771 -1.7897
  501WAT      O17501   2.630   0.312   0.764  0.2538  0.1229  0.1243
  501WAT     H117502   2.667   0.388   0.720  1.3479 -0.0456  0.7380
  501WAT     H217503   2.535   0.327   0.761  0.3726  0.7978 -1.0205
  502WAT      O17504   3.334   3.328   1.152  0.7366 -0.7787  0.1498
  502WAT     H117505   3.316   3.357   1.242  0.0878 -0.8996  0.0599
  502WAT     H217506   3.336   3.410   1.101  0.0680 -0.7952  0.0965
  503WAT      O17507   1.531   0.303   7.022  0.0729  0.4624  0.1365
  503WAT     H117508   1.462   0.256   7.069 -1.1153  2.4441  0.4964
  503WAT     H217509   1.557   0.373   7.081  1.3908  0.6407 -0.6012
  504WAT      O17510   6.004   3.890   7.301  0.5006  0.0601  0.2817
  504WAT     H117511   6.025   3.918   7.212 -0.8817  0.6634  0.1085
  504WAT     H217512   6.010   3.794   7.298 -1.8307 -0.1429 -1.1725
  505WAT      O17513   1.702   4.119   0.317 -0.1848  0.1330 -0.5961
  505WAT     H117514   1.739   4.080   0.237 -0.6993  0.1515 -0.8454
  505WAT     H217515   1.675   4.044   0.370  1.9973  0.0070  0.4998
  506WAT      O17516   2.836   4.002   7.401 -0.0724 -0.0321  0.0469
  506WAT     H117517   2.836   4.070   7.469  1.3273 -0.3554  0.4077
  506WAT     H217518   2.880   4.043   7.327 -0.0306 -0.2540 -0.0499
  507WAT      O17519   0.827   4.443   1.074 -0.2129  0.1246  0.2111
  507WAT     H117520   0.855   4.398   1.154  1.3278  1.0553  0.2469
  507WAT     H217521   0.820   4.535   1.099 -1.2140  0.2228 -0.3745
  508WAT      O17522   3.372   2.113   5.961 -0.1227 -0.6384  0.2261
  508WAT     H117523   3.289   2.084   5.923 -0.0712 -1.7562  0.9254
  508WAT     H217524   3.391   2.195   5.915 -1.7381 -0.2040  0.2481
  509WAT      O17525   4.211   3.720   1.589 -0.1107 -0.4061  0.0193
  509WAT     H117526   4.250   3.648   1.639 -0.1323 -0.3789  0.0758
  509WAT     H217527   4.155   3.677   1.525 -1.2971 -0.4017  1.0292
  510WAT      O17528   0.937   5.749   7.039 -0.0809  0.0814  0.1241
  510WAT     H117529   0.944   5.687   6.967  0.2106 -0.2341  0.4193
  510WAT     H217530   1.027   5.774   7.059 -0.2662  1.9341 -1.1176
  511WAT      O17531   3.539   5.731   7.250 -0.9873 -0.0643  0.0408
  511WAT     H117532   3.473   5.667   7.279  0.7498 -1.4696  1.1159
  511WAT     H217533   3.542   5.720   7.155 -1.4490 -0.8444  0.1035
  512WAT      O17534   5.963   0.423   7.155  0.4520 -0.1660  0.2347
  512WAT     H117535   6.017   0.389   7.084 -0.5097  0.1906 -0.7015
  512WAT     H217536   5.993   0.514   7.167 -0.1242  0.1234 -0.4812
  513WAT      O17537   2.512   1.383   7.490 -0.3922  0.0110 -0.1125
  513WAT     H117538   2.438   1.428   7.448  0.9933  0.2470 -2.4862
  513WAT     H217539   2.499   1.291   7.471  0.9442  0.2356 -2.4198
  514WAT      O17540   5.736   4.986   1.251  0.0868 -0.0576 -0.2407
  514WAT     H117541   5.700   5.006   1.165  0.4399  1.7571 -0.0037
  514WAT     H217542   5.738   5.070   1.296 -0.0162 -0.9642  1.5271
  515WAT      O17543   0.206   5.870   5.806  0.3290 -0.3505 -0.6382
  515WAT     H117544   0.292   5.897   5.774  0.4420 -1.2360 -1.1149
  515WAT     H217545   0.149   5.944   5.785  0.6290 -0.4590 -1.8999
  516WAT      O17546   4.095   2.225   6.644  0.3013  0.0873  0.3931
  516WAT     H117547   4.069   2.153   6.702 -0.1107 -0.4672 -0.4513
  516WAT     H217548   4.144   2.183   6.573 -0.9016  0.4661 -0.7112
  517WAT      O17549   1.467   2.485   6.766 -0.2297  0.3427  0.4338
  517WAT     H117550   1.458   2.449   6.678  0.5814 -0.8002  0.7909
  517WAT     H217551   1.378   2.502   6.794 -0.8620 -3.0139  0.8624
  518WAT      O17552   0.760   4.908   0.397  0.5865 -0.7443 -0.4898
  518WAT     H117553   0.750   5.003   0.403  1.8363 -0.6747  1.4834
  518WAT     H217554   0.754   4.877   0.487  0.4240 -2.5291 -1.0686
  519WAT      O17555   4.598   2.138   0.399  0.1149 -0.2293 -0.1224
  519WAT     H117556   4.663   2.149   0.467  1.0304 -1.9104 -0.6560
  519WAT     H217557   4.538   2.071   0.433  1.0491 -1.6990 -1.2121
  520WAT      O17558   3.211   4.361   0.558 -0.0238  0.2703  0.3462
  520WAT     H117559   3.153   4.310   0.614  1.5797 -0.5833  1.3426
  520WAT     H217560   3.201   4.323   0.471  0.2658 -0.9862  0.8427
  521WAT      O17561   0.837   4.651   0.332  0.1794 -0.1699 -0.1368
  521WAT     H117562   0.831   4.746   0.339 -0.0138 -0.1612 -0.4056
  521WAT     H217563   0.811   4.618   0.419 -0.2190  0.0061 -0.1852
  522WAT      O17564   1.447   1.812   5.836 -0.4050 -0.1667 -0.2441
  522WAT     H117565   1.541   1.803   5.847 -0.5162 -1.2161 -0.0325
  522WAT     H217566   1.422   1.880   5.899  0.2784  0.5290 -0.7075
  523WAT      O17567   3.624   1.657   1.689  0.0656 -0.4368  0.6925
  523WAT     H117568   3.694   1.688   1.746 -0.5464  2.0831  0.1891
  523WAT     H217569   3.543   1.683   1.733 -0.4270  1.4315 -1.1112
  524WAT      O17570   2.527   2.736   7.917  0.0670 -0.4437 -0.2964
  524WAT     H117571   2.577   2.785   7.983 -0.7620 -0.0618  0.0624
  524WAT     H217572   2.442   2.720   7.958 -0.9332  0.8991 -1.7080
  525WAT      O17573   6.151   2.575   5.709 -0.3038 -0.2367 -0.4977
  525WAT     H117574   6.097   2.516   5.656  0.5950 -1.9259  0.3920
  525WAT     H217575   6.097   2.594   5.785 -0.2521 -0.6778 -0.3453
  526WAT      O17576   3.279   4.460   7.600  0.1218  0.0075 -0.5441
  526WAT     H117577   3.237   4.374   7.610 -0.5744  0.4504  0.5521
  526WAT     H217578   3.359   4.442   7.550 -0.7552 -1.0471 -1.6331
  527WAT      O17579   1.054   5.409   6.268 -0.0291  0.1824 -0.2672
  527WAT     H117580   1.040   5.462   6.190 -1.0754  1.1256  0.5120
  527WAT     H217581   1.147   5.389   6.267  0.0539  0.5401 -1.5215
  528WAT      O17582   2.941   2.183   1.272 -0.2640  0.1029 -0.5949
  528WAT     H117583   2.901   2.268   1.255 -0.8264 -0.4827 -2.3458
  528WAT     H217584   2.907   2.158   1.358 -0.1673  1.5723 -0.0952
  529WAT      O17585   2.774   5.382   7.574  0.3327 -0.5293  0.0054
  529WAT     H117586   2.766   5.340   7.488 -0.9417 -3.1083  1.2641
  529WAT     H217587   2.860   5.353   7.607 -0.3704 -1.9020  0.7041
  530WAT      O17588   0.448   1.394   1.111 -0.3089  0.1707  0.0987
  530WAT     H117589   0.521   1.352   1.065 -0.6515 -0.9320  0.5360
  530WAT     H217590   0.459   1.488   1.092  1.1511  0.0160  0.0696
  531WAT      O17591   1.298   3.213   1.541  0.0566  0.4846 -0.2093
  531WAT     H117592   1.358   3.288   1.542 -0.6674  1.0664  0.1365
  531WAT     H217593   1.262   3.210   1.630 -0.5121  0.2069 -0.4430
  532WAT      O17594   0.394   5.139   1.825 -1.0489  0.0583 -0.1429
  532WAT     H117595   0.377   5.088   1.746  0.6642  2.2020 -1.9878
  532WAT     H217596   0.314   5.191   1.837 -0.9254  0.4722 -1.0631
  533WAT      O17597   5.492   1.669   6.793  0.3551  0.2201  0.3000
  533WAT     H117598   5.577   1.682   6.751  0.0481  0.0423 -0.3927
  533WAT     H217599   5.511   1.615   6.870  1.0130  1.0779  0.7589
  534WAT      O17600   2.222   3.696   0.886 -0.1177 -0.0099  0.1526
  534WAT     H117601   2.236   3.696   0.792  2.0847  1.4957  0.4235
  534WAT     H217602   2.244   3.784   0.915 -0.5172 -0.4896  2.1202
  535WAT      O17603   3.404   4.778   1.673 -0.4866  0.3726 -0.1466
  535WAT     H117604   3.345   4.739   1.608  0.2233  0.4422 -0.8420
  535WAT     H217605   3.486   4.791   1.626  0.7971 -1.7281  1.3936
  536WAT      O17606   5.561   0.432   0.510 -0.0008  0.1181  0.2529
  536WAT     H117607   5.600   0.345   0.504 -1.3339 -0.5156  0.3338
  536WAT     H217608   5.559   0.464   0.420 -2.6961 -1.4626 -0.3914
  537WAT      O17609   5.521   1.696   5.400  0.0354 -0.5698 -0.0324
  537WAT     H117610   5.426   1.699   5.392 -0.3766 -1.5714  2.9131
  537WAT     H217611   5.539   1.609   5.438  2.1615 -0.5173 -0.7657
  538WAT      O17612   4.892   1.494   6.973  0.3286  0.1305 -0.2220
  538WAT     H117613   4.926   1.535   7.053  1.0051 -0.5836 -0.1252
  538WAT     H217614   4.931   1.544   6.902  0.1159  0.4603 -0.1118
  539WAT      O17615   4.945   0.360   1.189  0.6447  0.2763 -0.2086
  539WAT     H117616   4.857   0.349   1.226  0.8669 -0.4655  0.1288
  539WAT     H217617   4.944   0.309   1.108 -0.0624  2.4723 -1.6758
  540WAT      O17618   1.672   6.062   0.031  0.0489 -0.1345 -0.4644
  540WAT     H117619   1.694   6.115  -0.046  0.5569  2.1603  1.1523
  540WAT     H217620   1.586   6.095   0.059  1.2464  1.3137  1.7141
  541WAT      O17621   3.435   0.768   0.503 -0.2768  0.6849 -0.5189
  541WAT     H117622   3.447   0.685   0.549  1.3933  0.9439 -0.4404
  541WAT     H217623   3.449   0.835   0.570 -1.1719  1.0584 -0.6816
  542WAT      O17624   5.265   3.092   1.926  0.0072  0.4772  0.2674
  542WAT     H117625   5.216   3.074   2.006 -1.0257 -1.8206 -0.8084
  542WAT     H217626   5.198   3.115   1.862  0.0002 -3.6881 -1.5052
  543WAT      O17627   2.114   1.569   1.453 -0.4950 -0.1503  0.3445
  543WAT     H117628   2.169   1.632   1.407 -2.2121  1.7432  0.7489
  543WAT     H217629   2.142   1.484   1.419  1.4787  0.8350 -0.6873
  544WAT      O17630   4.819   3.192   1.634  0.1655 -0.0745  0.0354
  544WAT     H117631   4.904   3.170   1.669  0.5965  1.5324  0.0695
  544WAT     H217632   4.762   3.119   1.659  0.9083  0.0706  2.3187
  545WAT      O17633   3.091   3.277   7.823 -0.5226 -0.3899 -0.1160
  545WAT     H117634   3.163   3.216   7.838 -1.1943 -1.5112 -1.2241
  545WAT     H217635   3.026   3.257   7.890  0.0259  0.3750  0.6574
  546WAT      O17636   0.355   2.945   0.950  0.4895  0.1546  0.1485
  546WAT     H117637   0.340   2.921   0.859 -0.0410 -0.3863  0.3695
  546WAT     H217638   0.270   2.931   0.993  0.5030  1.2233  0.5515
  547WAT      O17639   4.488   1.405   1.377  0.0503  0.4605 -0.1134
  547WAT     H117640   4.411   1.397   1.433  0.9148  1.5802  1.2818
  547WAT     H217641   4.462   1.469   1.311 -0.1284  1.0618  0.5265
  548WAT      O17642   5.069   5.531   7.258 -0.1679  0.5671 -0.3906
  548WAT     H117643   5.029   5.613   7.228 -1.4790  0.3099  0.5738
  548WAT     H217644   5.136   5.512   7.192 -1.4876  1.1357 -1.9822
  549WAT      O17645   5.370   1.261   5.956 -0.0330 -0.4495  0.0737
  549WAT     H117646   5.327   1.254   5.871 -0.9081 -0.5244  0.5064
  549WAT     H217647   5.316   1.322   6.006  1.9381  1.6738 -0.2739
  550WAT      O17648   3.694   1.413   0.484  0.0564  0.2014  0.8046
  550WAT     H117649   3.676   1.486   0.543 -0.8577  0.2877  0.4460
  550WAT     H217650   3.692   1.451   0.396 -2.2993 -0.5080  0.4580
  551WAT      O17651   2.850   0.393   1.488 -0.3012 -0.3341  0.2345
  551WAT     H117652   2.843   0.488   1.478  1.0317 -0.2745 -0.5282
  551WAT     H217653   2.825   0.376   1.578  0.4790  0.8889  0.7197
  552WAT      O17654   4.113   2.717   6.190 -0.5211 -0.4424  0.1676
  552WAT     H117655   4.169   2.789   6.162 -1.1190 -1.5043 -4.6904
  552WAT     H217656   4.038   2.759   6.232 -0.0384  1.6492 -0.9263
  553WAT      O17657   3.462   4.441   6.404  0.3233 -0.0627  0.2833
  553WAT     H117658   3.473   4.379   6.332 -1.1493  2.6584 -2.5544
  553WAT     H217659   3.371   4.431   6.430 -0.4562  1.8099 -1.3646
  554WAT      O17660   0.883   4.916   6.392  0.0851  0.1878  0.1424
  554WAT     H117661   0.941   4.852   6.351  0.7786 -0.5252  2.1123
  554WAT     H217662   0.910   5.000   6.355  2.6775 -0.0718  1.2239
  555WAT      O17663   0.863   0.325   7.527  0.1275  0.2269  0.1928
  555WAT     H117664   0.937   0.292   7.578  1.1904  2.7442  0.4342
  555WAT     H217665   0.891   0.412   7.499 -1.2567 -0.1988 -2.9622
  556WAT      O17666   5.654   3.086   0.921  0.2612 -0.4233  0.0356
  556WAT     H117667   5.565   3.064   0.949  0.6530 -0.1444  1.6285
  556WAT     H217668   5.687   3.142   0.991  1.2619  0.5403 -1.1548
  557WAT      O17669   0.633   1.568   6.784 -0.0106  0.1937 -0.0388
  557WAT     H117670   0.681   1.570   6.702 -0.9860  1.1669 -0.6224
  557WAT     H217671   0.696   1.595   6.850  0.4800  0.5372 -0.6406
  558WAT      O17672   4.526   3.037   7.403  0.5173 -0.0727 -0.0898
  558WAT     H117673   4.587   2.977   7.447  1.2684  0.1587 -0.7826
  558WAT     H217674   4.492   2.986   7.330 -0.3084 -0.2745  0.4255
  559WAT      O17675   1.398   3.577   6.610  0.5461 -0.0389 -0.2252
  559WAT     H117676   1.332   3.593   6.543  1.8436 -2.3160 -2.2158
  559WAT     H217677   1.475   3.624   6.578  0.4980  0.9279  1.0225
  560WAT      O17678   1.154   5.984   5.673  0.8656 -0.0371 -0.2537
  560WAT     H117679   1.141   5.942   5.758  3.3200 -0.9703 -0.2508
  560WAT     H217680   1.219   6.053   5.690 -0.6327  1.6110 -0.9032
  561WAT      O17681   5.058   3.241   7.359  0.4474  0.2057  0.7036
  561WAT     H117682   5.018   3.255   7.273  0.0315 -0.5803  0.7581
  561WAT     H217683   4.985   3.245   7.421  0.7193  0.5830  1.0039
  562WAT      O17684   1.447   4.707   5.544  0.1708  0.0639  0.2014
  562WAT     H117685   1.505   4.652   5.492  0.2872  0.0081  0.3861
  562WAT     H217686   1.505   4.772   5.584 -0.1805  1.4621 -1.4287
  563WAT      O17687   5.278   4.154   6.103 -0.2581  0.1881  0.1680
  563WAT     H117688   5.359   4.195   6.071 -0.3157 -0.8539 -1.5079
  563WAT     H217689   5.262   4.083   6.040 -2.6920  0.6029  0.2233
  564WAT      O17690   5.238   0.161   6.479 -0.3200  0.0016  0.7053
  564WAT     H117691   5.304   0.164   6.549  0.4754 -0.6784  0.0067
  564WAT     H217692   5.272   0.220   6.412  0.2553 -1.3456 -0.2175
  565WAT      O17693   4.229   2.875   6.915  0.2082 -0.3982 -0.5767
  565WAT     H117694   4.224   2.918   6.830 -0.6580  0.0249 -0.3276
  565WAT     H217695   4.204   2.943   6.977 -0.3308 -1.0252 -0.0943
  566WAT      O17696   5.979   0.444   1.273 -0.2423 -0.7319 -0.6039
  566WAT     H117697   6.019   0.357   1.270  0.3700 -0.4502 -0.8030
  566WAT     H217698   5.956   0.457   1.365 -0.6200 -1.2223 -0.6199
  567WAT      O17699   4.683   4.717   1.011  0.2835 -0.0455 -0.3859
  567WAT     H117700   4.706   4.808   1.030 -1.4605  0.6323 -1.3736
  567WAT     H217701   4.753   4.666   1.053  1.0269  1.7038  0.6146
  568WAT      O17702   4.547   4.613   6.106  0.4631  0.1042 -0.5755
  568WAT     H117703   4.515   4.628   6.017 -1.0553  2.3334  0.2514
  568WAT     H217704   4.625   4.559   6.095  2.7944  3.6357 -3.6095
  569WAT      O17705   2.897   5.361   6.498 -0.5183  0.5594  0.4925
  569WAT     H117706   2.938   5.276   6.478  1.1653  1.1856  1.1697
  569WAT     H217707   2.812   5.357   6.453  0.2506 -0.8007 -0.9339
  570WAT      O17708   0.758   3.687   6.912 -0.2308  0.2458 -0.3315
  570WAT     H117709   0.766   3.765   6.967 -0.1524  0.2497 -0.3493
  570WAT     H217710   0.811   3.621   6.956  0.0117  0.3132 -0.5245
  571WAT      O17711   5.158   2.037   1.837 -0.9373  0.5446  0.3326
  571WAT     H117712   5.073   2.001   1.811 -1.6970  0.6925  2.3874
  571WAT     H217713   5.136   2.108   1.898  0.5980  2.6196 -1.3600
  572WAT      O17714   0.412   3.757   7.043 -0.2642 -0.1785  0.1979
  572WAT     H117715   0.452   3.789   6.962 -0.0791 -1.3233 -0.1834
  572WAT     H217716   0.444   3.816   7.111  0.2104  0.3184 -0.4503
  573WAT      O17717   1.203   2.555   6.165  0.2613 -0.0385  0.5615
  573WAT     H117718   1.150   2.630   6.190 -0.4611 -0.5367  0.5473
  573WAT     H217719   1.230   2.573   6.075 -0.2446  0.0227  0.4197
  574WAT      O17720   5.019   1.216   0.607 -0.2276 -0.1685  0.5424
  574WAT     H117721   4.979   1.131   0.627  1.1996 -0.8780  0.4969
  574WAT     H217722   5.070   1.237   0.685  0.5033 -0.0138  0.0326
  575WAT      O17723   1.596   1.886   7.421 -0.4788  0.6973  0.4076
  575WAT     H117724   1.689   1.895   7.441 -0.7881  1.1810  1.7791
  575WAT     H217725   1.590   1.803   7.373  0.8600  1.5613 -1.3203
  576WAT      O17726   4.720   3.756   7.748  0.0861  0.4166 -0.7029
  576WAT     H117727   4.668   3.832   7.723 -0.1590  0.4338 -0.1735
  576WAT     H217728   4.774   3.788   7.821 -0.5232 -0.0863 -0.0086
  577WAT      O17729   0.437   2.060   6.479 -0.3288 -0.2078  0.0033
  577WAT     H117730   0.529   2.071   6.504 -0.1092 -1.4732 -0.1611
  577WAT     H217731   0.432   2.093   6.390 -0.3216  0.9975  0.4265
  578WAT      O17732   0.105   5.685   6.954  0.2588  0.4339 -0.0049
  578WAT     H117733   0.119   5.772   6.991 -1.2847  0.3950  0.7500
  578WAT     H217734   0.194   5.652   6.937  1.1968  0.4545  3.7677
  579WAT      O17735   5.910   3.025   7.667 -0.3456 -0.4145 -0.0802
  579WAT     H117736   5.876   3.076   7.594 -0.1928  0.9917  0.7953
  579WAT     H217737   6.004   3.042   7.668 -0.5543  0.9472  1.4067
  580WAT      O17738   2.067   4.760   6.734  0.2795 -0.1152 -0.1401
  580WAT     H117739   2.106   4.722   6.813 -1.2213 -1.2956  0.1022
  580WAT     H217740   2.097   4.703   6.663  1.8479  1.1053 -0.5029
  581WAT      O17741   1.443   4.062   6.859  0.0768 -0.0909  0.0268
  581WAT     H117742   1.394   4.121   6.802 -0.2117  0.0392  0.4033
  581WAT     H217743   1.535   4.081   6.841  0.0069 -0.8178 -1.1936
  582WAT      O17744   1.660   5.105   0.445 -0.4418  0.1658  0.1799
  582WAT     H117745   1.569   5.096   0.418 -0.2001  1.2502 -1.0575
  582WAT     H217746   1.697   5.170   0.386  1.1078 -0.1443  0.7598
  583WAT      O17747   4.223   3.545   5.877 -0.1939  0.2422  0.1570
  583WAT     H117748   4.233   3.489   5.799  0.5270  0.0157  0.4111
  583WAT     H217749   4.156   3.609   5.851  0.8198  0.8637 -1.0469
  584WAT      O17750   5.710   5.940   1.329 -0.0564  0.4376  0.0852
  584WAT     H117751   5.696   5.906   1.418  0.6459 -0.2960 -0.0787
  584WAT     H217752   5.624   5.932   1.287 -0.2026  0.0474  0.4500
  585WAT      O17753   5.106   2.754   7.019 -0.0944 -0.6885 -0.3589
  585WAT     H117754   5.049   2.757   7.096  0.4204  0.4882  0.0047
  585WAT     H217755   5.052   2.786   6.947  0.8849  3.7999  0.5835
  586WAT      O17756   3.016   5.751   1.742 -0.4762  0.5084  0.2262
  586WAT     H117757   2.999   5.660   1.719  1.7951 -0.5011  2.0876
  586WAT     H217758   2.967   5.766   1.823  0.3110  0.4496  0.7215
  587WAT      O17759   0.146   1.149   0.361  0.2820  0.5207 -0.0697
  587WAT     H117760   0.107   1.064   0.381  0.2969  0.3336 -0.8074
  587WAT     H217761   0.130   1.202   0.439  0.7679 -0.3270  0.6255
  588WAT      O17762   6.004   0.891   1.164 -0.1706 -0.0497  0.3562
  588WAT     H117763   6.030   0.923   1.250 -0.0326  1.2085 -0.1249
  588WAT     H217764   5.928   0.835   1.181  0.2059 -0.2792  1.3367
  589WAT      O17765   4.842   2.428   0.242  0.0455 -0.0574 -0.0639
  589WAT     H117766   4.750   2.454   0.249 -0.0947 -0.5280 -0.1329
  589WAT     H217767   4.887   2.481   0.307 -0.1027  0.9775 -0.7777
  590WAT      O17768   2.411   2.955   6.876 -0.0159  0.3155 -0.3166
  590WAT     H117769   2.501   2.963   6.908 -0.5786  1.5483  1.0567
  590WAT     H217770   2.390   3.040   6.838 -1.1020  0.5976  0.8245
  591WAT      O17771   1.828   0.242   7.235 -0.6027 -0.4993  0.4220
  591WAT     H117772   1.818   0.337   7.238  0.7093 -0.3526  0.8502
  591WAT     H217773   1.821   0.220   7.142 -2.3146 -0.1884  0.4277
  592WAT      O17774   2.941   4.987   5.857  0.5418 -0.1431 -0.2079
  592WAT     H117775   2.859   5.025   5.888  0.2191 -0.2672 -0.8968
  592WAT     H217776   2.994   5.062   5.830 -0.1124 -0.1598 -1.6110
  593WAT      O17777   4.168   2.447   0.097 -0.4687 -0.1226  0.2071
  593WAT     H117778   4.139   2.493   0.176 -0.9271 -1.4650  0.8569
  593WAT     H217779   4.250   2.405   0.123  0.5955  1.2891 -0.7503
  594WAT      O17780   2.019   0.465   0.258 -0.1042  0.9864 -0.2872
  594WAT     H117781   1.969   0.450   0.178  0.0004 -1.9780  0.0704
  594WAT     H217782   1.968   0.420   0.326  1.2820  0.9086  0.7392
  595WAT      O17783   5.652   2.401   0.948 -0.2921 -0.2360 -0.1806
  595WAT     H117784   5.601   2.481   0.960 -0.3572 -0.1216 -1.1294
  595WAT     H217785   5.660   2.392   0.853  2.7096  0.5421 -0.0893
  596WAT      O17786   2.671   1.366   6.412 -0.0330  0.1461  0.2018
  596WAT     H117787   2.753   1.334   6.374 -0.1465 -0.9903  0.8746
  596WAT     H217788   2.620   1.394   6.336  0.3336 -0.6775 -0.3716
  597WAT      O17789   4.576   2.943   1.179 -0.2284  0.6613  0.1156
  597WAT     H117790   4.557   2.970   1.089 -1.1810 -0.2139  0.0330
  597WAT     H217791   4.670   2.924   1.179 -0.2810  0.3686 -0.7808
  598WAT      O17792   5.109   0.105   7.033  0.2758 -0.2012 -0.3361
  598WAT     H117793   5.186   0.160   7.048  0.1898 -0.4925  1.3432
  598WAT     H217794   5.124   0.066   6.946  1.4653  0.6120 -0.5268
  599WAT      O17795   1.501   4.768   2.096 -0.0150  0.2734 -0.2856
  599WAT     H117796   1.517   4.836   2.031  1.4593 -0.1184 -0.3573
  599WAT     H217797   1.527   4.807   2.179 -0.3659  0.2168 -0.1454
  600WAT      O17798   1.485   5.335   7.135 -0.2489 -0.4330  0.2814
  600WAT     H117799   1.396   5.303   7.119 -0.2287 -0.6389  0.5806
  600WAT     H217800   1.472   5.413   7.189 -0.2104 -0.8382  0.8742
  601WAT      O17801   0.617   5.873   1.060 -0.3965 -0.1818 -0.2800
  601WAT     H117802   0.647   5.964   1.060 -0.2951 -0.0080 -4.8625
  601WAT     H217803   0.522   5.879   1.058 -0.3885 -0.0118 -1.8365
  602WAT      O17804   1.674   0.419   0.871 -0.3093 -0.4224 -0.2664
  602WAT     H117805   1.622   0.428   0.950  0.7087  0.8013  0.3021
  602WAT     H217806   1.676   0.325   0.854  0.4859 -0.8500  1.9017
  603WAT      O17807   2.633   3.712   0.696 -0.1825  0.5757  0.3514
  603WAT     H117808   2.680   3.637   0.662 -1.4476 -0.1223  0.0844
  603WAT     H217809   2.702   3.773   0.724  0.8952  0.4081 -1.7356
  604WAT      O17810   1.537   0.294   6.749 -0.2307  0.6125  0.0032
  604WAT     H117811   1.485   0.373   6.733  0.9520  1.6474  0.9998
  604WAT     H217812   1.529   0.278   6.843 -1.3920 -1.1798 -0.3611
  605WAT      O17813   0.423   5.262   6.557 -0.3701 -0.5356  0.2706
  605WAT     H117814   0.473   5.285   6.635 -0.5544 -0.2689  0.3082
  605WAT     H217815   0.396   5.345   6.519  0.5673 -0.6288 -0.6385
  606WAT      O17816   2.670   2.119   1.097 -0.4651 -0.4924  0.1858
  606WAT     H117817   2.657   2.121   1.191  0.7145 -0.8110  0.3819
  606WAT     H217818   2.748   2.064   1.085  0.4101  0.8902 -0.8494
  607WAT      O17819   5.944   0.136   1.078 -0.8213  0.4841  0.0073
  607WAT     H117820   5.997   0.078   1.132  1.1866  2.1551 -0.0492
  607WAT     H217821   5.966   0.112   0.988  0.3979  1.6067 -0.0171
  608WAT      O17822   4.327   2.782   1.484 -0.2631 -0.3269 -0.5401
  608WAT     H117823   4.409   2.748   1.522  0.5686  0.7055 -1.3399
  608WAT     H217824   4.356   2.851   1.424 -1.6219 -1.0265 -2.0650
  609WAT      O17825   3.518   0.727   1.290 -0.5742 -0.1533  0.3546
  609WAT     H117826   3.603   0.703   1.325  0.3475  0.8120 -1.0968
  609WAT     H217827   3.501   0.815   1.324 -0.6883 -0.0893  0.1397
  610WAT      O17828   3.243   4.221   1.871  0.2181  0.1717 -0.8530
  610WAT     H117829   3.210   4.132   1.858 -1.1081  0.7918 -1.9652
  610WAT     H217830   3.167   4.277   1.859  0.5063  1.3760  2.0923
  611WAT      O17831   1.666   4.993   0.075  0.2684 -0.1109  0.4343
  611WAT     H117832   1.761   4.997   0.064  0.2177 -1.7760 -1.2474
  611WAT     H217833   1.632   5.002  -0.014 -1.3396  3.0061  1.2466
  612WAT      O17834   0.231   4.486   7.695  0.3561 -0.9888 -0.3575
  612WAT     H117835   0.267   4.455   7.613  0.0854 -3.6724  0.4284
  612WAT     H217836   0.147   4.440   7.703 -0.0744 -0.0464  0.9721
  613WAT      O17837   4.946   1.663   6.345  0.4215 -0.0021  0.3117
  613WAT     H117838   4.942   1.634   6.253 -1.8431 -0.6936  0.5586
  613WAT     H217839   4.960   1.757   6.339  3.3865 -0.4139 -0.6198
  614WAT      O17840   1.495   2.653   1.411 -0.3027  0.4817 -0.0665
  614WAT     H117841   1.504   2.599   1.490  0.7644 -1.0016 -1.1551
  614WAT     H217842   1.410   2.696   1.421 -1.3874 -1.6990  0.6813
  615WAT      O17843   0.859   4.189   0.220  0.1039  0.0534  0.0901
  615WAT     H117844   0.893   4.193   0.309 -1.6629  2.7760  0.7834
  615WAT     H217845   0.778   4.139   0.228  0.0106  0.1879 -0.0163
  616WAT      O17846   2.016   4.303   0.624 -1.0390  0.3424  0.4308
  616WAT     H117847   2.014   4.209   0.640 -1.0394  0.2735  0.0469
  616WAT     H217848   2.100   4.319   0.582 -0.0637  0.8630  2.4862
  617WAT      O17849   2.830   0.178   0.444  0.8736  0.1171  0.0420
  617WAT     H117850   2.875   0.219   0.371 -0.5161  0.7812 -0.4615
  617WAT     H217851   2.740   0.207   0.437  0.3195 -1.2624  0.9719
  618WAT      O17852   6.108   0.514   0.513 -0.0787  0.1995 -0.2249
  618WAT     H117853   6.026   0.505   0.466 -1.4229  0.4182  1.9430
  618WAT     H217854   6.135   0.424   0.532  0.9779  0.0732 -2.1619
  619WAT      O17855   0.386   6.103   0.243 -0.3723  0.1204 -0.2715
  619WAT     H117856   0.366   6.136   0.331 -2.6876 -1.2034 -0.2034
  619WAT     H217857   0.318   6.142   0.188  1.3189  1.2921 -1.6257
  620WAT      O17858   5.338   2.314   6.250 -0.1633 -0.4365 -0.0568
  620WAT     H117859   5.253   2.357   6.238 -0.2767 -0.1565  1.5340
  620WAT     H217860   5.383   2.326   6.166 -1.4784 -0.1253 -0.7503
  621WAT      O17861   1.145   6.004   6.079  1.1527 -0.1229 -0.1814
  621WAT     H117862   1.118   6.094   6.060 -0.3297 -0.4041  0.4692
  621WAT     H217863   1.233   5.998   6.042  1.0872  1.4345 -0.6931
  622WAT      O17864   4.599   2.922   7.841 -0.3929  0.6727  0.2748
  622WAT     H117865   4.567   2.994   7.895 -2.2086  0.9413 -1.0848
  622WAT     H217866   4.521   2.870   7.821  0.1930  0.6115 -2.1000
  623WAT      O17867   3.408   5.007   7.571  0.3390 -0.5748  0.8168
  623WAT     H117868   3.456   5.023   7.490  0.3792 -0.9734  0.7592
  623WAT     H217869   3.397   5.094   7.610 -2.2355  0.0290 -1.0349
  624WAT      O17870   4.796   2.105   0.635 -0.1200  0.1023 -0.0052
  624WAT     H117871   4.795   2.098   0.731 -1.8591 -1.1559 -0.0636
  624WAT     H217872   4.780   2.015   0.605 -0.0177  0.5535 -1.4716
  625WAT      O17873   5.891   1.772   7.421  0.2959  0.6600 -0.1038
  625WAT     H117874   5.806   1.813   7.406  0.8696  2.3426  1.0223
  625WAT     H217875   5.887   1.740   7.511  0.3109 -0.6991 -0.5597
  626WAT      O17876   4.556   5.046   7.304 -0.5876  0.4605 -0.6719
  626WAT     H117877   4.631   4.989   7.286 -0.6379  0.3743 -0.6065
  626WAT     H217878   4.584   5.133   7.275  0.1422  0.7573  0.8040
  627WAT      O17879   1.620   0.223   5.897  0.8417 -0.3530  0.0215
  627WAT     H117880   1.695   0.165   5.883  0.2061 -1.2341  0.1683
  627WAT     H217881   1.555   0.168   5.941  0.7047  0.8318  1.3673
  628WAT      O17882   5.348   2.074   0.323  0.0935 -0.5956 -0.0417
  628WAT     H117883   5.438   2.068   0.355  0.0749 -1.0619 -0.0708
  628WAT     H217884   5.356   2.070   0.228  0.4589  4.2462 -0.4425
  629WAT      O17885   5.428   1.479   5.567  0.0985 -0.4368  0.0673
  629WAT     H117886   5.376   1.545   5.523 -1.4214 -1.5866  0.0445
  629WAT     H217887   5.416   1.497   5.660  1.1742  0.3914  0.0680
  630WAT      O17888   2.606   4.253   6.590 -0.4687 -0.1661 -0.5005
  630WAT     H117889   2.569   4.200   6.519  1.2325  0.2956 -1.7969
  630WAT     H217890   2.636   4.188   6.655 -1.3928 -0.6206 -0.5093
  631WAT      O17891   1.514   0.717   7.655  0.0010  0.4660  0.1771
  631WAT     H117892   1.418   0.719   7.659  0.0301  1.4811  1.5833
  631WAT     H217893   1.540   0.804   7.687  1.3921  0.2472 -0.3025
  632WAT      O17894   1.355   3.173   0.300 -0.3778 -0.2899  0.6605
  632WAT     H117895   1.402   3.138   0.376 -0.6307 -0.7060  0.6299
  632WAT     H217896   1.422   3.216   0.248 -0.2055  0.0323  1.1329
  633WAT      O17897   3.344   0.646   7.014  0.5231  0.2483 -0.0183
  633WAT     H117898   3.395   0.662   6.934  1.1670  2.5796  0.7609
  633WAT     H217899   3.400   0.588   7.065 -0.7017 -2.8105 -1.9197
  634WAT      O17900   2.044   5.221   1.210 -0.0734 -0.5774 -0.0021
  634WAT     H117901   1.987   5.265   1.148 -1.7344 -2.2323  0.2571
  634WAT     H217902   2.003   5.237   1.295  1.1590  0.1201  0.4922
  635WAT      O17903   5.293   2.613   0.775  0.0509 -0.0291 -0.3278
  635WAT     H117904   5.337   2.563   0.707 -0.8332 -0.7932 -0.3492
  635WAT     H217905   5.277   2.699   0.736 -0.9027 -0.6175 -1.2723
  636WAT      O17906   0.387   6.062   6.404 -0.6272 -0.0895  0.2223
  636WAT     H117907   0.428   6.111   6.332  1.1332 -0.7273  0.7571
  636WAT     H217908   0.295   6.091   6.402 -0.3860  0.7281 -1.5735
  637WAT      O17909   1.156   6.180   0.927 -0.3552 -0.2578  0.0894
  637WAT     H117910   1.209   6.186   1.006  0.3366 -0.9099 -0.3133
  637WAT     H217911   1.161   6.268   0.889  0.4308 -0.3098  0.0643
  638WAT      O17912   1.119   4.795   6.238 -0.4061 -0.2090 -0.3444
  638WAT     H117913   1.213   4.814   6.244  0.0590 -2.0898 -0.9645
  638WAT     H217914   1.115   4.707   6.202 -2.4271 -0.3068  0.0166
  639WAT      O17915   6.003   5.005   7.128 -0.2031  0.2819  0.2980
  639WAT     H117916   5.958   5.046   7.054  0.1964  1.3633  0.6349
  639WAT     H217917   6.092   5.042   7.126 -0.2882  0.6081  1.5146
  640WAT      O17918   2.726   1.935   2.231 -0.2552 -0.2741 -0.2293
  640WAT     H117919   2.695   1.908   2.144 -2.4082  0.9093  0.1076
  640WAT     H217920   2.728   2.030   2.227 -0.4101 -0.2065  1.0229
  641WAT      O17921   1.242   1.165   6.938  0.5676 -0.2359  0.7896
  641WAT     H117922   1.174   1.212   6.890  0.6962 -2.0779 -1.3579
  641WAT     H217923   1.321   1.217   6.925  0.3205 -0.0191  0.1045
  642WAT      O17924   0.904   1.981   1.484  0.0966 -0.4877  0.0511
  642WAT     H117925   0.890   2.042   1.557 -1.2452 -1.1763  0.3994
  642WAT     H217926   0.999   1.966   1.484  0.1579 -0.2394  1.4627
  643WAT      O17927   4.101   0.680   1.456 -0.0046 -0.4319  0.4096
  643WAT     H117928   4.103   0.692   1.551  1.4273 -1.2802  0.5146
  643WAT     H217929   4.152   0.600   1.441  0.1330 -0.0823 -1.1015
  644WAT      O17930   0.060   2.604   0.388 -0.4912  0.3387 -0.1606
  644WAT     H117931  -0.006   2.649   0.441 -0.7091  0.1493 -0.2710
  644WAT     H217932   0.110   2.675   0.348 -0.8265  0.4865 -0.3251
  645WAT      O17933   2.214   2.137   1.068  0.6375 -0.0712  0.3453
  645WAT     H117934   2.293   2.086   1.050  0.8487  0.6630 -0.9532
  645WAT     H217935   2.160   2.126   0.989  0.2941  0.9534  0.4252
  646WAT      O17936   0.848   0.630   6.872 -0.4910 -0.5212  0.5021
  646WAT     H117937   0.904   0.701   6.842  0.5381 -2.5961 -3.0905
  646WAT     H217938   0.759   0.660   6.853 -0.2676  0.6970  1.2820
  647WAT      O17939   1.512   0.510   0.644 -0.1841  1.1348 -0.0598
  647WAT     H117940   1.436   0.553   0.683 -1.0963 -0.5243  0.0641
  647WAT     H217941   1.578   0.510   0.714 -0.9003  0.5112  0.6345
  648WAT      O17942   6.183   5.456   0.376  0.2410  0.3223 -0.4675
  648WAT     H117943   6.166   5.544   0.342 -0.1841  0.7100  0.6945
  648WAT     H217944   6.258   5.424   0.326 -0.4489  0.8034 -1.8421
  649WAT      O17945   0.863   4.582   7.619 -0.2543 -0.0558 -0.1739
  649WAT     H117946   0.870   4.544   7.706 -0.0943  0.5372  0.0748
  649WAT     H217947   0.848   4.507   7.561  0.0439 -0.4921  0.3106
  650WAT      O17948   2.886   4.602   6.448 -0.1496 -0.7984 -0.5039
  650WAT     H117949   2.800   4.566   6.467 -0.5390  1.0632  1.7651
  650WAT     H217950   2.948   4.534   6.474 -0.8869 -0.5923  2.0295
  651WAT      O17951   3.298   1.335   1.812 -0.0584 -0.0811 -0.2519
  651WAT     H117952   3.239   1.410   1.813  1.7304  1.3987  1.0924
  651WAT     H217953   3.294   1.300   1.900  1.8862  0.8076  0.2572
  652WAT      O17954   4.427   3.123   0.405 -0.1000 -0.2275 -0.0271
  652WAT     H117955   4.510   3.099   0.362  1.5275  1.8293  1.7488
  652WAT     H217956   4.366   3.138   0.333  1.5275 -0.2337 -1.4816
  653WAT      O17957   5.521   2.483   1.917  0.1543  0.2356  0.4226
  653WAT     H117958   5.616   2.496   1.924  0.0752  0.7545  0.5498
  653WAT     H217959   5.509   2.389   1.930  0.5700  0.2992  1.3288
  654WAT      O17960   3.590   6.073   0.124  0.4950  0.1204  0.4783
  654WAT     H117961   3.619   6.161   0.102  0.1165 -0.2047 -1.4942
  654WAT     H217962   3.498   6.070   0.095  0.5449 -0.9526  0.3977
  655WAT      O17963   4.899   0.199   6.763 -0.1625 -0.2463  0.6571
  655WAT     H117964   4.859   0.192   6.676 -1.9954  0.2830  1.4211
  655WAT     H217965   4.955   0.122   6.768 -2.4083 -2.0447  0.1540
  656WAT      O17966   2.570   5.539   6.698 -0.1446 -0.2431  0.1091
  656WAT     H117967   2.608   5.503   6.618  0.1143  0.2949 -0.0141
  656WAT     H217968   2.548   5.463   6.751 -0.0204 -0.5930 -0.3389
  657WAT      O17969   4.549   2.228   0.876 -0.0538  0.0345  0.3680
  657WAT     H117970   4.612   2.160   0.852 -0.8312 -0.2083 -1.1023
  657WAT     H217971   4.569   2.301   0.817 -1.4203 -0.2156 -0.4458
  658WAT      O17972   4.305   2.058   7.517 -0.0374  0.1017  0.2128
  658WAT     H117973   4.298   1.998   7.591  0.4724  1.6452  1.5359
  658WAT     H217974   4.240   2.126   7.534  0.8905  1.1106 -0.1293
  659WAT      O17975   2.054   6.065   2.311 -0.1243  0.2365  0.4462
  659WAT     H117976   2.141   6.050   2.276  0.0918  1.0767  0.5856
  659WAT     H217977   2.048   6.008   2.388  0.2044 -0.0174  0.2828
  660WAT      O17978   3.756   5.073   6.707  0.5641 -0.8736  0.2841
  660WAT     H117979   3.820   5.139   6.733  0.5417 -1.1300  1.0097
  660WAT     H217980   3.678   5.123   6.683  1.2142 -0.5153 -1.2124
  661WAT      O17981   5.810   5.094   2.039 -0.3988 -0.2604  0.1297
  661WAT     H117982   5.825   5.006   2.004  0.7523 -0.5899  1.3626
  661WAT     H217983   5.877   5.148   1.997 -1.7941  0.3183 -1.4744
  662WAT      O17984   5.649   1.118   6.277 -0.0219  0.0608 -0.2526
  662WAT     H117985   5.638   1.099   6.370 -0.1942 -0.2533 -0.3339
  662WAT     H217986   5.722   1.062   6.249  1.2429  1.4811  0.0874
  663WAT      O17987   5.073   5.620   2.131  0.0206 -0.0925  0.5648
  663WAT     H117988   5.066   5.580   2.045 -2.1483 -0.6984  0.9487
  663WAT     H217989   5.119   5.703   2.116 -0.3415 -0.1723 -1.1728
  664WAT      O17990   2.943   3.737   6.815 -0.4309 -0.5768 -0.0011
  664WAT     H117991   3.038   3.737   6.802 -0.3479 -2.4883  0.3382
  664WAT     H217992   2.932   3.745   6.910 -0.6251 -0.3859 -0.0384
  665WAT      O17993   2.680   0.983   0.324  0.8543 -0.3015  0.2427
  665WAT     H117994   2.682   1.002   0.230 -1.2405  1.3236  0.4532
  665WAT     H217995   2.756   1.029   0.359  0.5247  0.7866 -0.4101
  666WAT      O17996   1.431   4.020   6.480  0.4100  0.2017 -0.1090
  666WAT     H117997   1.368   3.959   6.519  0.5744 -0.2176 -0.4930
  666WAT     H217998   1.397   4.037   6.392 -0.2135  1.5112  0.3532
  667WAT      O17999   1.979   3.647   7.205  0.1144  0.4190 -0.2226
  667WAT     H118000   2.013   3.557   7.204 -0.4125  0.2109 -1.6358
  667WAT     H218001   1.894   3.639   7.247  1.0526  0.6775  1.8399
  668WAT      O18002   3.534   2.570   0.404 -0.1758  0.2265  0.1112
  668WAT     H118003   3.594   2.644   0.411  1.0565 -0.5567 -1.4182
  668WAT     H218004   3.583   2.496   0.440 -0.9117 -0.0835  0.4853
  669WAT      O18005   3.439   3.694   4.708  0.4863  0.2816  0.9093
  669WAT     H118006   3.511   3.646   4.749  0.7436  0.0733  0.2301
  669WAT     H218007   3.477   3.732   4.629 -0.1834  0.0231  0.4461
  670WAT      O18008   4.636   0.824   7.490 -0.3308 -0.1586 -0.3020
  670WAT     H118009   4.697   0.897   7.483 -1.0387  0.4622 -0.1050
  670WAT     H218010   4.691   0.746   7.489  0.4647  0.3947 -0.0120
  671WAT      O18011   5.924   6.044   0.989 -0.6721  0.5203  0.3804
  671WAT     H118012   5.876   6.072   0.911 -1.2992 -0.4585  0.3938
  671WAT     H218013   5.977   5.970   0.960 -0.7744  0.2602  0.8392
  672WAT      O18014   2.451   3.604   0.998 -0.1687  0.0038 -0.0829
  672WAT     H118015   2.453   3.698   0.980 -0.3245 -0.2334 -1.4374
  672WAT     H218016   2.360   3.579   0.984 -0.5622 -0.0438  2.1347
  673WAT      O18017   5.790   3.648   1.655  1.1308  0.3962  0.1665
  673WAT     H118018   5.884   3.632   1.661  0.7659 -1.3605  2.4379
  673WAT     H218019   5.751   3.561   1.649 -0.3790  1.1171 -1.4916
  674WAT      O18020   0.394   0.822   6.577  0.5477  0.2003  0.4399
  674WAT     H118021   0.406   0.884   6.649  1.5060  1.2432 -0.5774
  674WAT     H218022   0.305   0.789   6.588 -0.4447  2.6336  0.3812
  675WAT      O18023   4.994   4.520   0.831  0.9814 -0.3280 -0.4754
  675WAT     H118024   5.046   4.584   0.782  0.1247  0.3288 -0.5445
  675WAT     H218025   4.920   4.502   0.773  0.5068 -0.3448  0.1384
  676WAT      O18026   4.432   1.492   0.930 -0.5482  0.0972 -0.0778
  676WAT     H118027   4.466   1.433   0.863 -0.3142 -0.0578  0.1811
  676WAT     H218028   4.356   1.446   0.966 -1.4548  0.7144 -1.1037
  677WAT      O18029   1.844   2.211   6.792  0.5310  0.5228  0.9938
  677WAT     H118030   1.911   2.272   6.762 -0.1643  1.3847  1.1779
  677WAT     H218031   1.781   2.265   6.838 -0.2133 -0.3057  0.9724
  678WAT      O18032   3.857   1.122   0.841  0.6322 -0.6458  0.3762
  678WAT     H118033   3.945   1.158   0.826  0.9757 -1.9346 -1.0639
  678WAT     H218034   3.806   1.153   0.766 -0.7069  1.5785  2.1052
  679WAT      O18035   3.508   4.607   5.966  0.5007 -0.7101  0.1556
  679WAT     H118036   3.428   4.561   5.992  0.6472 -2.0032 -1.5306
  679WAT     H218037   3.579   4.548   5.993  0.8072 -0.3943  0.0508
  680WAT      O18038   1.333   6.156   5.760  0.1608 -0.5102 -0.3442
  680WAT     H118039   1.360   6.120   5.844  2.3021 -0.6110 -1.0189
  680WAT     H218040   1.317   6.249   5.778 -0.9775 -0.8285  0.4590
  681WAT      O18041   0.399   2.661   0.091  0.1411 -0.2738  0.3617
  681WAT     H118042   0.319   2.711   0.077 -0.5371 -1.1355  1.0019
  681WAT     H218043   0.378   2.573   0.060  1.0779 -0.3428 -0.1173
  682WAT      O18044   2.933   4.883   7.532 -0.0030  0.3155  0.2137
  682WAT     H118045   2.983   4.807   7.563  1.2792  0.7253 -0.7811
  682WAT     H218046   2.982   4.916   7.457 -0.7999  1.8411  0.3115
  683WAT      O18047   1.669   3.407   0.403  0.1947 -0.2383  0.2400
  683WAT     H118048   1.743   3.457   0.370 -0.4296 -0.2483 -1.2728
  683WAT     H218049   1.593   3.443   0.357 -0.9145  0.4076  2.4349
  684WAT      O18050   5.748   3.458   0.243 -0.1089  0.6039 -0.4375
  684WAT     H118051   5.654   3.460   0.265 -0.9585 -2.7278 -2.9646
  684WAT     H218052   5.788   3.410   0.315 -0.5659  0.9148  0.0357
  685WAT      O18053   2.015   4.327   6.496 -0.1565 -0.4119 -0.5454
  685WAT     H118054   1.942   4.298   6.441 -0.9888  1.7527 -0.6557
  685WAT     H218055   1.991   4.298   6.584 -1.7124  1.1089 -0.4028
  686WAT      O18056   0.986   4.795   1.004  0.0771  0.2819 -0.3854
  686WAT     H118057   1.046   4.725   0.976 -0.5642 -1.0987  1.5119
  686WAT     H218058   1.038   4.875   0.996  1.9423 -0.7739  0.4848
  687WAT      O18059   6.195   6.099   7.568 -0.3233  0.4529  0.1540
  687WAT     H118060   6.285   6.104   7.601 -0.2818  0.3385  0.0588
  687WAT     H218061   6.202   6.051   7.486 -0.6858 -0.9807  0.9435
  688WAT      O18062   0.620   4.398   5.534 -0.6036 -0.2394  0.8657
  688WAT     H118063   0.592   4.489   5.530 -1.1998 -0.3658  2.0278
  688WAT     H218064   0.669   4.385   5.452 -0.5780  1.0869  0.6490
  689WAT      O18065   0.911   3.153   0.311  0.0066 -0.0435 -0.2552
  689WAT     H118066   0.899   3.058   0.303 -1.3530  0.1731 -1.1263
  689WAT     H218067   0.991   3.162   0.363 -0.2922 -1.6625  0.5825
  690WAT      O18068   0.932   5.964   0.973 -0.0630  0.2761  0.0409
  690WAT     H118069   1.007   6.016   0.944  0.3668 -0.8835 -1.0148
  690WAT     H218070   0.865   5.979   0.906  0.2600 -0.9151 -0.5820
  691WAT      O18071   5.631   4.492   7.307  0.0451  0.1432 -0.6034
  691WAT     H118072   5.687   4.426   7.347  0.7308  0.7256 -0.5736
  691WAT     H218073   5.651   4.572   7.355 -1.2076  0.2626 -0.2474
  692WAT      O18074   0.696   1.745   1.632  0.2398  0.0755 -0.3388
  692WAT     H118075   0.745   1.663   1.634  1.2470  0.6860  1.3181
  692WAT     H218076   0.701   1.773   1.540 -1.4331 -2.4126 -1.3166
  693WAT      O18077   5.372   5.068   1.182  0.1761  0.0205  1.0144
  693WAT     H118078   5.287   5.098   1.149  0.2928 -0.7844 -0.0783
  693WAT     H218079   5.393   5.129   1.252 -0.8750  0.7862  0.6938
  694WAT      O18080   5.971   1.012   0.710  0.4337 -0.2945  0.3844
  694WAT     H118081   6.026   0.954   0.762  3.6186  2.1914  0.0615
  694WAT     H218082   5.925   0.953   0.650  3.4944 -2.5558  0.0394
  695WAT      O18083   5.152   5.876   5.699 -0.3981  0.0228  0.0408
  695WAT     H118084   5.215   5.839   5.760 -0.1445  0.3381 -0.0314
  695WAT     H218085   5.147   5.811   5.628  0.2147  0.2283 -0.1958
  696WAT      O18086   0.427   4.725   6.957 -0.3874 -0.0037 -0.1760
  696WAT     H118087   0.521   4.711   6.944  0.0168  1.7365  0.5939
  696WAT     H218088   0.391   4.732   6.868  0.4590  0.7031 -0.4815
  697WAT      O18089   5.895   0.661   7.436 -0.6911  0.4727 -0.0197
  697WAT     H118090   5.859   0.684   7.521 -0.5081  0.7068 -0.0049
  697WAT     H218091   5.820   0.627   7.387 -0.6075 -0.5719  0.5503
  698WAT      O18092   1.993   5.861   2.082 -0.1562  0.5213 -0.1957
  698WAT     H118093   1.994   5.921   2.156 -0.2068  0.9128 -0.5085
  698WAT     H218094   2.037   5.782   2.114 -1.1336  0.2721  0.5968
  699WAT      O18095   5.736   0.400   6.337  0.6246  0.4289  0.5353
  699WAT     H118096   5.680   0.408   6.260  1.3748  0.6868 -0.0010
  699WAT     H218097   5.758   0.490   6.360 -0.3964  0.4023  1.6693
  700WAT      O18098   4.471   0.715   7.207  0.5920  0.1182  0.1342
  700WAT     H118099   4.379   0.719   7.180  1.3451 -1.6246 -3.1998
  700WAT     H218100   4.467   0.715   7.303 -3.1254 -2.6760  0.2393
  701WAT      O18101   4.107   5.317   7.804 -0.0747 -0.1665  0.1224
  701WAT     H118102   4.025   5.364   7.791  0.3813  0.3479 -1.0404
  701WAT     H218103   4.150   5.364   7.875  0.5792  1.5388 -1.3088
  702WAT      O18104   5.304   2.362   7.885 -0.0236  0.3782 -0.0767
  702WAT     H118105   5.211   2.380   7.899 -1.3556 -3.6305 -2.1978
  702WAT     H218106   5.328   2.415   7.809 -0.6143  1.1966  0.2967
  703WAT      O18107   3.681   3.872   7.268 -0.3317 -0.4248  0.6041
  703WAT     H118108   3.606   3.826   7.306 -0.7830  0.9941  1.5108
  703WAT     H218109   3.750   3.865   7.334  1.0230 -3.1970 -0.9054
  704WAT      O18110   1.048   2.759   6.252 -0.1971  0.4856  0.1226
  704WAT     H118111   1.027   2.807   6.332 -1.7052 -2.6679  1.8183
  704WAT     H218112   0.966   2.757   6.203  0.6540  2.1891 -1.5077
  705WAT      O18113   3.411   0.559   6.256 -0.3561  0.2185  0.2024
  705WAT     H118114   3.389   0.564   6.349  0.5039 -1.0579  0.4975
  705WAT     H218115   3.376   0.475   6.227 -0.6270  0.6115 -0.6471
  706WAT      O18116   2.587   2.118   5.433  0.0929  0.6544  0.4129
  706WAT     H118117   2.611   2.177   5.361  1.6998  0.7145  0.9475
  706WAT     H218118   2.548   2.176   5.499  0.5152  0.9419  0.4189
  707WAT      O18119   4.640   1.425   7.082  0.0690  0.5095 -0.2064
  707WAT     H118120   4.646   1.488   7.154  1.2428 -0.3507  0.4814
  707WAT     H218121   4.719   1.438   7.031  0.4645 -0.5646  0.1005
  708WAT      O18122   4.077   3.787   0.307 -0.1045 -0.1095  1.0707
  708WAT     H118123   4.045   3.864   0.260  1.4233 -0.8190 -1.3344
  708WAT     H218124   4.167   3.809   0.331 -0.3568 -0.3650  2.2633
  709WAT      O18125   1.931   3.693   6.354  0.1276  0.2817 -0.1528
  709WAT     H118126   1.877   3.620   6.383  1.6408 -1.2304 -0.9804
  709WAT     H218127   1.950   3.741   6.435  0.9883 -1.5838  0.8334
  710WAT      O18128   1.289   4.613   2.371 -0.2940 -0.3590  0.1499
  710WAT     H118129   1.373   4.653   2.345 -0.4363 -0.2770 -0.1971
  710WAT     H218130   1.303   4.585   2.461  0.0146 -0.0858  0.1927
  711WAT      O18131   4.740   2.532   6.368  0.2084 -0.4181 -0.1284
  711WAT     H118132   4.719   2.620   6.336 -1.5729 -0.3071  1.2057
  711WAT     H218133   4.682   2.474   6.318 -0.0677 -0.6176  0.4215
  712WAT      O18134   3.749   6.073   6.706  0.6461 -0.0518 -0.6206
  712WAT     H118135   3.658   6.057   6.680  0.3346  0.0958  0.3198
  712WAT     H218136   3.761   6.167   6.692  1.0674 -0.2837 -1.9405
  713WAT      O18137   0.381   4.496   0.973  0.3362 -0.0953  0.7559
  713WAT     H118138   0.451   4.431   0.981  1.6042  0.7359 -2.1477
  713WAT     H218139   0.300   4.445   0.980  1.2698 -1.8744 -0.5348
  714WAT      O18140   1.764   4.684   1.971  0.2142 -0.0854 -0.7633
  714WAT     H118141   1.802   4.603   2.003 -0.1950  0.3228  0.8235
  714WAT     H218142   1.806   4.753   2.022 -0.0961  0.6449 -1.4556
  715WAT      O18143   3.115   0.803   5.743  0.1757  0.2808  0.5072
  715WAT     H118144   3.203   0.842   5.737  0.2004  0.0670 -0.7854
  715WAT     H218145   3.057   0.878   5.757  0.4112  0.5974 -0.1644
  716WAT      O18146   3.960   2.587   1.634 -0.2972  0.7691 -0.4451
  716WAT     H118147   3.871   2.561   1.654 -0.0534  0.0934 -0.1990
  716WAT     H218148   3.964   2.591   1.539 -0.2503 -0.4787 -0.5090
  717WAT      O18149   5.933   5.156   6.875  0.6349 -0.0374  0.1556
  717WAT     H118150   5.861   5.093   6.864  1.1206 -0.3033 -1.7303
  717WAT     H218151   5.889   5.240   6.887 -0.0270 -0.0192 -2.0992
  718WAT      O18152   5.956   2.115   7.695  0.0668 -0.5026 -0.5258
  718WAT     H118153   6.037   2.068   7.677  0.6173 -0.8839  2.5131
  718WAT     H218154   5.895   2.048   7.725  0.1134  0.3452  1.5957
  719WAT      O18155   2.274   1.103   7.194 -0.0787  0.4452  0.6420
  719WAT     H118156   2.365   1.092   7.166  0.1822 -0.3596  1.7657
  719WAT     H218157   2.273   1.076   7.285 -1.2024  1.6669  1.0214
  720WAT      O18158   0.793   4.725   1.177  0.0435  0.3073  0.1160
  720WAT     H118159   0.773   4.795   1.239  0.3996  1.3166 -0.8689
  720WAT     H218160   0.852   4.766   1.113  0.1915 -0.8731 -0.5370
  721WAT      O18161   3.862   3.861   7.791  0.1092 -0.1784  0.7100
  721WAT     H118162   3.838   3.952   7.778  0.0600 -0.5368 -2.3115
  721WAT     H218163   3.823   3.838   7.876 -1.6487  2.0070  0.5867
  722WAT      O18164   0.696   2.579   6.330  0.4756  0.3403 -0.2327
  722WAT     H118165   0.754   2.645   6.368  2.0473 -1.4801  0.7153
  722WAT     H218166   0.652   2.624   6.258  0.1156  2.9143  1.4504
  723WAT      O18167   0.704   4.664   6.902 -0.1221 -0.3225  0.5005
  723WAT     H118168   0.768   4.606   6.941  0.2822 -0.0858  0.1995
  723WAT     H218169   0.742   4.752   6.912  0.7755 -0.3789 -1.8398
  724WAT      O18170   5.181   2.130   6.890  0.6519  0.6465 -0.2463
  724WAT     H118171   5.231   2.097   6.816  1.6844  1.9258 -0.1530
  724WAT     H218172   5.244   2.179   6.943  0.1700 -0.9721  2.0026
  725WAT      O18173   3.036   4.634   7.593  0.0756 -0.1264  0.4760
  725WAT     H118174   2.994   4.602   7.673  1.0007 -0.9046  0.6718
  725WAT     H218175   3.123   4.594   7.594  0.1718  0.0068 -0.8318
  726WAT      O18176   0.301   0.873   0.600 -0.4276  0.4994 -0.7413
  726WAT     H118177   0.284   0.948   0.657 -0.6643 -0.4247  0.4668
  726WAT     H218178   0.216   0.830   0.591 -0.1199 -0.1649 -0.5927
  727WAT      O18179   2.968   4.545   6.996  0.6134 -0.2428  0.5271
  727WAT     H118180   2.978   4.450   6.992  1.0333 -0.1675 -0.2350
  727WAT     H218181   3.047   4.575   7.041  1.3210 -0.1125 -0.7674
  728WAT      O18182   3.009   3.721   0.791  0.1119 -0.1708 -0.1171
  728WAT     H118183   3.078   3.677   0.742  0.5278 -1.8213  1.8296
  728WAT     H218184   2.986   3.659   0.861 -3.8482 -0.0391 -1.0551
  729WAT      O18185   0.463   0.347   7.186 -0.0246  0.4800 -0.5536
  729WAT     H118186   0.490   0.439   7.188  2.1746 -0.0974 -0.8923
  729WAT     H218187   0.538   0.302   7.146 -1.1733 -1.4231 -0.6371
  730WAT      O18188   1.819   3.281   7.678 -0.6297 -0.2099 -0.0148
  730WAT     H118189   1.821   3.230   7.597 -0.9142  0.1754 -0.2700
  730WAT     H218190   1.779   3.222   7.742 -2.1698  0.1047 -0.6210
  731WAT      O18191   0.868   0.353   1.180  0.3774 -0.9174  0.1024
  731WAT     H118192   0.809   0.380   1.110  0.0398  2.8704  1.5999
  731WAT     H218193   0.955   0.357   1.140  0.1377  0.5735 -0.3325
  732WAT      O18194   3.207   4.287   6.283  0.0954 -0.0407  0.4053
  732WAT     H118195   3.283   4.229   6.279  0.0926  0.0107 -0.6343
  732WAT     H218196   3.151   4.258   6.211 -0.6751  0.1961  0.8960
  733WAT      O18197   4.631   4.206   7.056 -0.1604 -0.7377  0.3740
  733WAT     H118198   4.647   4.209   7.150 -1.0238 -1.2286  0.5494
  733WAT     H218199   4.536   4.195   7.048 -0.4381  1.6896 -0.5872
  734WAT      O18200   0.529   3.608   1.586 -0.6808 -0.0946  0.7930
  734WAT     H118201   0.510   3.700   1.604 -4.3537 -0.5881  0.3439
  734WAT     H218202   0.480   3.560   1.653  0.4104 -1.7421  0.4726
  735WAT      O18203   4.607   0.671   2.258 -0.2549 -0.1585 -0.3410
  735WAT     H118204   4.595   0.635   2.170  1.2132 -0.5297 -0.4158
  735WAT     H218205   4.701   0.666   2.273 -0.5998 -1.5954  1.8783
  736WAT      O18206   1.437   2.260   0.511  0.1040 -0.4292 -0.3363
  736WAT     H118207   1.515   2.237   0.460  0.0389 -0.6981 -0.3175
  736WAT     H218208   1.381   2.307   0.449  0.4131  0.0393 -0.2662
  737WAT      O18209   0.851   1.535   7.723  0.4390 -0.8017 -0.4063
  737WAT     H118210   0.917   1.587   7.768  0.2071  0.5679 -1.5773
  737WAT     H218211   0.770   1.553   7.772 -0.4413  2.9819 -2.8168
  738WAT      O18212   1.141   5.461   6.664 -0.4378 -0.2914 -0.1100
  738WAT     H118213   1.170   5.494   6.578  0.5646 -1.6038 -0.3106
  738WAT     H218214   1.066   5.406   6.644 -0.3128 -0.4548 -0.1374
  739WAT      O18215   2.415   1.607   6.521 -0.1822 -0.3744  0.0125
  739WAT     H118216   2.503   1.625   6.554  0.1938 -0.5367 -0.8732
  739WAT     H218217   2.400   1.675   6.456 -0.2112 -1.0724 -0.7215
  740WAT      O18218   3.159   4.869   6.904  0.6868 -0.3905  0.0168
  740WAT     H118219   3.229   4.809   6.878  1.2340 -0.3621  1.3620
  740WAT     H218220   3.128   4.835   6.988 -1.5659 -0.9353 -0.9720
  741WAT      O18221   1.741   0.069   0.376 -0.4482  0.7429 -0.0528
  741WAT     H118222   1.656   0.026   0.365  0.2677 -0.8870  0.4107
  741WAT     H218223   1.770   0.043   0.463  0.5580  1.1980 -0.2404
  742WAT      O18224   5.804   1.876   6.337  0.2923  0.4510  0.1301
  742WAT     H118225   5.892   1.854   6.369 -1.1053 -2.0732  2.7208
  742WAT     H218226   5.797   1.831   6.253  1.4983  0.8268 -0.1964
  743WAT      O18227   2.459   2.128   0.377 -0.1955 -0.8998  0.0381
  743WAT     H118228   2.419   2.181   0.446 -0.9505 -1.9746  0.4479
  743WAT     H218229   2.549   2.162   0.370 -0.2273 -0.5106  1.2678
  744WAT      O18230   2.012   4.971   1.100  0.0177  0.0990 -0.1803
  744WAT     H118231   1.991   5.062   1.120  0.8497  0.7327 -1.9113
  744WAT     H218232   1.980   4.922   1.174  0.0098  1.8678  1.0569
  745WAT      O18233   2.821   0.159   2.239 -0.3418  0.9030  0.9449
  745WAT     H118234   2.729   0.138   2.255 -0.2647 -1.1075 -0.8850
  745WAT     H218235   2.825   0.255   2.247 -2.2386  0.9033  2.5658
  746WAT      O18236   0.653   5.707   5.949 -0.1149 -0.4750 -0.1209
  746WAT     H118237   0.724   5.768   5.932 -0.5044  0.2249  0.6923
  746WAT     H218238   0.630   5.672   5.863 -0.0396  0.6985 -0.6390
  747WAT      O18239   2.725   3.633   6.385 -0.2039 -0.0749 -0.0693
  747WAT     H118240   2.732   3.722   6.351 -0.3158 -0.0677 -0.0749
  747WAT     H218241   2.711   3.578   6.308 -0.6738 -0.0332 -0.0189
  748WAT      O18242   0.463   1.992   0.918  0.4341 -0.4665  0.5243
  748WAT     H118243   0.458   1.963   1.009 -0.2585 -1.3454  0.2218
  748WAT     H218244   0.533   2.058   0.917 -0.0256  0.0647  1.8168
  749WAT      O18245   2.943   1.603   6.828  0.8111  0.1340 -0.1365
  749WAT     H118246   2.926   1.521   6.875  0.7010  0.9306  1.2731
  749WAT     H218247   2.957   1.668   6.897  1.1095  1.2705 -1.2228
  750WAT      O18248   2.214   5.961   7.273  0.0943 -0.8503 -0.3549
  750WAT     H118249   2.188   6.049   7.243 -0.6279 -0.9877 -0.1452
  750WAT     H218250   2.219   5.969   7.368 -0.4942 -1.1728 -0.2943
  751WAT      O18251   5.804   5.001   7.916 -0.0424 -0.5930 -0.1202
  751WAT     H118252   5.783   5.065   7.848  0.6439 -0.8965 -0.6267
  751WAT     H218253   5.856   4.934   7.872  4.4678  1.4006  1.5319
  752WAT      O18254   4.465   4.211   5.561 -0.3790  0.0086 -0.0398
  752WAT     H118255   4.387   4.155   5.563 -0.7160  0.4540 -0.4182
  752WAT     H218256   4.503   4.195   5.475 -2.6187  3.1823 -1.8170
  753WAT      O18257   4.659   5.072   1.686  0.1012 -0.3733  0.1272
  753WAT     H118258   4.606   5.141   1.726 -1.9157 -2.1569  0.6911
  753WAT     H218259   4.597   5.002   1.667  2.3185 -2.7763  1.1999
  754WAT      O18260   0.790   3.236   5.717 -0.0818 -0.1933 -0.2556
  754WAT     H118261   0.861   3.292   5.685 -0.4930  0.7023  0.3656
  754WAT     H218262   0.786   3.254   5.811  1.1343 -2.7908  0.4014
  755WAT      O18263   0.961   6.224   7.154 -0.0415 -0.3989  0.0369
  755WAT     H118264   1.000   6.170   7.223  1.1796  0.2582 -0.1122
  755WAT     H218265   0.880   6.257   7.192 -0.0310 -1.1023  0.6800
  756WAT      O18266   1.983   3.268   0.144  0.1617  0.0992  0.2376
  756WAT     H118267   2.048   3.316   0.092 -1.1274  1.1791 -0.4445
  756WAT     H218268   2.035   3.212   0.202  1.6540 -0.8607 -1.9172
  757WAT      O18269   6.171   4.324   7.136 -0.2672  0.0130 -0.2630
  757WAT     H118270   6.171   4.409   7.093 -1.5050 -0.5396 -1.4127
  757WAT     H218271   6.194   4.343   7.227  1.8393  1.2772 -0.9925
  758WAT      O18272   2.061   6.090   7.801  0.2276 -0.3246 -0.2614
  758WAT     H118273   2.004   6.166   7.789 -0.8936 -1.0211  0.3968
  758WAT     H218274   2.123   6.117   7.869  0.0299  0.1066 -0.2475
  759WAT      O18275   3.053   3.703   5.886  0.7190 -0.6971  0.5896
  759WAT     H118276   3.019   3.657   5.962  1.1669  1.4796  2.2167
  759WAT     H218277   2.977   3.750   5.851  0.7037 -0.9680  0.2612
  760WAT      O18278   4.792   5.668   7.276  0.4233  0.4923  0.2146
  760WAT     H118279   4.848   5.745   7.290  2.8961 -0.9907 -0.7161
  760WAT     H218280   4.741   5.690   7.198 -1.3124  2.3621  1.7707
  761WAT      O18281   2.964   4.836   7.847  0.2009 -0.0460  0.5290
  761WAT     H118282   2.876   4.865   7.821 -0.0832 -0.2400  1.2514
  761WAT     H218283   2.952   4.796   7.933  0.8408 -0.9676  0.2078
  762WAT      O18284   1.496   1.545   6.054 -0.3860 -0.3338  0.1000
  762WAT     H118285   1.584   1.582   6.059  0.0973 -1.2213 -1.3543
  762WAT     H218286   1.510   1.453   6.032 -1.6791  0.3008 -4.4131
  763WAT      O18287   0.804   2.826   6.447 -0.0755 -0.5255 -0.2160
  763WAT     H118288   0.860   2.895   6.411 -0.0046  0.0906  1.0273
  763WAT     H218289   0.715   2.855   6.428 -0.0444 -0.1031  0.2742
  764WAT      O18290   4.073   5.272   2.136  0.5015 -0.1155 -0.1191
  764WAT     H118291   4.105   5.360   2.156  0.2228  0.2749 -1.2955
  764WAT     H218292   3.979   5.283   2.119  0.2810 -0.7913  0.5811
  765WAT      O18293   0.993   1.814   0.509  0.2048 -0.3457  0.5058
  765WAT     H118294   1.047   1.883   0.470 -2.0648  0.7782 -0.9102
  765WAT     H218295   0.972   1.756   0.435 -0.1183 -1.0312  1.1261
  766WAT      O18296   3.204   4.709   6.171  0.2567  0.3130  0.0315
  766WAT     H118297   3.247   4.625   6.156 -0.3222  0.1247 -0.6490
  766WAT     H218298   3.171   4.734   6.085 -1.0915  0.3935  0.5491
  767WAT      O18299   2.338   1.228   6.874 -0.4395  0.3351 -0.2387
  767WAT     H118300   2.387   1.232   6.791 -0.3871 -0.2118 -0.2352
  767WAT     H218301   2.401   1.191   6.937 -0.2508  1.4015  0.2170
  768WAT      O18302   4.902   1.868   1.729  0.2177 -0.1094 -0.1986
  768WAT     H118303   4.832   1.843   1.789 -0.2316 -0.1365 -0.7264
  768WAT     H218304   4.877   1.955   1.698 -0.2693 -0.6427 -1.3719
  769WAT      O18305   4.285   5.507   7.627  0.0622  0.0954 -0.1772
  769WAT     H118306   4.362   5.519   7.682 -0.0268 -0.2264  0.0208
  769WAT     H218307   4.215   5.486   7.689  0.2209 -1.5048 -0.4897
  770WAT      O18308   2.462   2.477   7.002 -0.1415 -0.0708 -1.0568
  770WAT     H118309   2.490   2.389   7.027 -0.1943  0.2571  0.2385
  770WAT     H218310   2.543   2.524   6.984  0.0284  0.1613  0.2086
  771WAT      O18311   0.413   2.884   0.550  0.5824 -0.2413  0.0075
  771WAT     H118312   0.390   2.791   0.542 -0.4509  0.0643 -0.9885
  771WAT     H218313   0.351   2.919   0.614 -0.4160  0.1483 -1.1190
  772WAT      O18314   5.317   0.665   0.468 -0.0748  0.1376  0.6418
  772WAT     H118315   5.263   0.636   0.541 -0.9848  1.4481  0.5330
  772WAT     H218316   5.402   0.624   0.483 -0.7807 -1.1050  1.4122
  773WAT      O18317   2.623   2.268   0.035 -0.3087 -0.1831 -0.2411
  773WAT     H118318   2.692   2.289   0.099  0.8623  3.1458 -2.3102
  773WAT     H218319   2.542   2.297   0.077  0.1961  0.3624  0.3855
  774WAT      O18320   3.373   3.187   6.221 -0.0442 -0.0294 -0.0919
  774WAT     H118321   3.469   3.186   6.216 -0.0986  0.1782 -1.6370
  774WAT     H218322   3.354   3.232   6.304  1.1893  0.0388  0.1765
  775WAT      O18323   0.702   2.959   2.323  0.1841  0.4407  0.2974
  775WAT     H118324   0.696   2.990   2.233  0.5951  1.5251  0.6215
  775WAT     H218325   0.746   3.030   2.370  1.8378 -0.9404  0.9642
  776WAT      O18326   6.065   5.583   7.715 -0.0696 -0.3748 -0.0033
  776WAT     H118327   6.019   5.654   7.669 -0.4409  0.7533  2.0049
  776WAT     H218328   6.152   5.619   7.734  0.0886 -0.8367  0.1563
  777WAT      O18329   0.308   1.713   0.078 -0.6505  0.5385 -0.2619
  777WAT     H118330   0.333   1.691  -0.012  0.6066 -1.7592  0.5510
  777WAT     H218331   0.384   1.759   0.113  0.6058 -2.0584  0.7142
  778WAT      O18332   2.437   3.002   5.522 -0.0583  0.3302  0.3352
  778WAT     H118333   2.455   3.082   5.571  1.7786  0.5434 -0.6044
  778WAT     H218334   2.342   3.002   5.510 -0.0629  2.5993 -0.0533
  779WAT      O18335   0.689   3.474   7.629 -0.0364 -0.3139  0.3334
  779WAT     H118336   0.706   3.381   7.642  0.0252 -0.5029 -0.9432
  779WAT     H218337   0.717   3.515   7.711  2.3996 -1.1291  0.0023
  780WAT      O18338   5.189   1.786   0.451  0.1918  0.2439  0.1997
  780WAT     H118339   5.094   1.776   0.459  0.0311  0.2403 -1.3847
  780WAT     H218340   5.214   1.836   0.529 -1.4723  2.3563 -0.5070
  781WAT      O18341   5.575   2.233   6.413  0.3250 -0.3067 -0.1774
  781WAT     H118342   5.563   2.142   6.440  1.3145 -0.0886  1.1045
  781WAT     H218343   5.486   2.267   6.402 -0.0500 -1.4880 -0.9566
  782WAT      O18344   4.328   3.484   1.258 -0.1054 -0.6896 -0.1625
  782WAT     H118345   4.280   3.451   1.334  1.7675  0.0423  1.4234
  782WAT     H218346   4.391   3.415   1.238  0.8795  0.0364  0.3735
  783WAT      O18347   3.873   4.971   7.585 -0.2040  0.3528  0.5115
  783WAT     H118348   3.842   5.057   7.615  2.0236  1.6388 -0.5869
  783WAT     H218349   3.962   4.964   7.619  1.6392  0.9314 -3.5395
  784WAT      O18350   0.690   5.541   7.554 -0.1191  0.0578 -0.4057
  784WAT     H118351   0.667   5.460   7.508 -1.4589 -0.0634  0.4124
  784WAT     H218352   0.633   5.542   7.631  0.7827  1.1497  0.2926
  785WAT      O18353   3.880   1.205   6.249 -0.6816  0.5645 -0.2578
  785WAT     H118354   3.963   1.235   6.287 -0.7228 -0.8359  1.0235
  785WAT     H218355   3.895   1.206   6.155  1.0780 -0.4511 -0.0247
  786WAT      O18356   1.384   3.966   5.041  0.0926 -0.5860 -0.2811
  786WAT     H118357   1.316   3.905   5.010 -0.8070  0.6975 -0.9066
  786WAT     H218358   1.335   4.040   5.077  1.1651 -0.0001 -0.0033
  787WAT      O18359   4.312   4.659   7.772 -0.1664 -0.5712 -0.6170
  787WAT     H118360   4.301   4.670   7.867 -1.9009  1.6596 -0.9897
  787WAT     H218361   4.406   4.675   7.757  0.4464 -2.4194  0.8186
  788WAT      O18362   2.674   5.329   0.985  0.0460  0.2100  0.1516
  788WAT     H118363   2.638   5.336   1.074 -1.1340  0.4497 -0.3314
  788WAT     H218364   2.725   5.410   0.975 -0.9134  0.8355  0.1442
  789WAT      O18365   1.182   5.029   6.966 -0.3279  0.6245 -0.0642
  789WAT     H118366   1.091   5.003   6.981 -0.0204 -1.3490 -1.2651
  789WAT     H218367   1.191   5.113   7.011 -1.6346 -0.9583  3.4821
  790WAT      O18368   4.640   1.896   1.021  0.6328 -0.0962  0.2160
  790WAT     H118369   4.729   1.925   1.002  0.5931  0.1839  0.4496
  790WAT     H218370   4.648   1.841   1.099  0.5975 -0.0511  0.2514
  791WAT      O18371   1.074   4.834   1.720  0.1172 -0.1174  0.0615
  791WAT     H118372   1.165   4.837   1.748  0.2330  0.4316 -0.3533
  791WAT     H218373   1.037   4.918   1.748 -0.6150 -0.8454  1.3721
  792WAT      O18374   1.445   6.123   1.347  0.0769 -0.0562  0.1259
  792WAT     H118375   1.499   6.047   1.329  0.6684  1.0360 -3.3836
  792WAT     H218376   1.504   6.197   1.339 -1.3595  1.0175 -1.3597
  793WAT      O18377   1.881   0.798   7.099 -0.3256  0.2386 -0.1512
  793WAT     H118378   1.971   0.819   7.074  0.2025 -3.0335 -1.5311
  793WAT     H218379   1.827   0.847   7.036  0.6937 -0.9047 -2.0004
  794WAT      O18380   5.641   4.678   7.813  0.1696 -0.2490  0.6501
  794WAT     H118381   5.726   4.661   7.854 -0.3412  0.0802  1.8782
  794WAT     H218382   5.597   4.738   7.873 -1.8350 -2.1475  1.2338
  795WAT      O18383   4.401   1.858   0.882 -0.1918  0.5730  0.5358
  795WAT     H118384   4.481   1.878   0.931  1.6227  1.1275 -2.4004
  795WAT     H218385   4.427   1.789   0.820 -1.9028  0.9210 -0.6386
  796WAT      O18386   0.660   2.893   6.827  0.1480  0.2057 -0.7608
  796WAT     H118387   0.737   2.933   6.868 -0.5966  2.3851 -1.3336
  796WAT     H218388   0.593   2.961   6.830 -0.9041 -0.6443 -2.7539
  797WAT      O18389   2.812   2.592   0.655 -0.0910  0.0865 -0.3047
  797WAT     H118390   2.839   2.683   0.667 -2.7325  1.1407 -1.6715
  797WAT     H218391   2.850   2.567   0.570  0.4417 -0.0387 -0.0364
  798WAT      O18392   0.375   5.126   0.243  0.2343 -0.8045 -0.1463
  798WAT     H118393   0.416   5.158   0.323  4.1777 -0.1007 -2.2010
  798WAT     H218394   0.363   5.032   0.258  0.4431 -0.6095  1.3869
  799WAT      O18395   0.213   3.803   6.794 -0.4646  0.7192 -0.1333
  799WAT     H118396   0.275   3.852   6.741  0.5354  1.2042  1.4137
  799WAT     H218397   0.180   3.734   6.736  3.0510 -0.8581 -0.5185
  800WAT      O18398   4.198   0.408   0.062 -0.0677  0.0307  0.0418
  800WAT     H118399   4.187   0.395  -0.032  1.5168  1.4801 -0.3907
  800WAT     H218400   4.164   0.495   0.079  1.3815  0.5671  0.4157
  801WAT      O18401   0.610   1.477   0.531  0.2287 -0.1484 -0.1550
  801WAT     H118402   0.576   1.552   0.580  1.7481 -0.3225  1.2548
  801WAT     H218403   0.627   1.411   0.597  1.4920 -0.7415 -1.0391
  802WAT      O18404   3.351   4.996   0.445  0.0980  0.1805  0.1682
  802WAT     H118405   3.415   4.937   0.485 -1.0340 -2.4111 -1.5842
  802WAT     H218406   3.403   5.069   0.411  1.6579 -0.1298  1.7260
  803WAT      O18407   5.399   3.433   2.202 -0.2619  0.0707 -0.3429
  803WAT     H118408   5.393   3.340   2.177  0.8463 -0.1331  0.0920
  803WAT     H218409   5.457   3.433   2.278 -1.7164  0.9335  0.8125
  804WAT      O18410   2.659   3.862   6.256 -0.2496  0.1096  0.1757
  804WAT     H118411   2.740   3.902   6.224 -0.3394  0.1073 -0.0590
  804WAT     H218412   2.607   3.849   6.177 -0.0273 -0.9113  0.1803
  805WAT      O18413   1.316   4.850   1.815 -0.1532 -1.0536  0.9095
  805WAT     H118414   1.387   4.804   1.772  0.3922 -1.4816  2.2132
  805WAT     H218415   1.355   4.932   1.847 -1.1286  0.4241 -1.4419
  806WAT      O18416   5.918   6.078   0.561 -0.0949  0.1145  0.2770
  806WAT     H118417   5.928   5.983   0.558  0.3803  0.0665  2.1488
  806WAT     H218418   6.005   6.112   0.539 -0.5498  0.1934 -1.5945
  807WAT      O18419   0.677   2.675   0.491 -0.1259 -0.2187  0.3223
  807WAT     H118420   0.671   2.698   0.398 -1.5165  1.0280  0.6848
  807WAT     H218421   0.736   2.741   0.528  0.3662 -0.6710  0.3741
  808WAT      O18422   0.560   3.975   2.407  0.3184 -0.3495  0.3236
  808WAT     H118423   0.488   3.985   2.345  1.6761  0.5717 -1.1807
  808WAT     H218424   0.538   3.896   2.456 -1.3361 -0.5119 -0.6016
  809WAT      O18425   4.824   3.599   1.514  0.1418 -0.2619 -0.2258
  809WAT     H118426   4.891   3.586   1.581  0.2416  0.5971 -0.1444
  809WAT     H218427   4.761   3.529   1.529 -0.6375  0.7917  1.7758
  810WAT      O18428   3.871   4.330   5.537 -0.2173 -0.1766  0.2383
  810WAT     H118429   3.924   4.253   5.558 -1.0008 -0.7183  0.3090
  810WAT     H218430   3.921   4.378   5.472  2.0286  1.2177  2.7901
  811WAT      O18431   3.319   4.225   6.916  1.0028  0.5411 -0.4962
  811WAT     H118432   3.378   4.275   6.973  2.3778 -1.3278 -0.1909
  811WAT     H218433   3.307   4.281   6.839  1.7256  1.7264  0.2302
  812WAT      O18434   5.434   5.695   7.223  0.2187  0.4263 -0.1967
  812WAT     H118435   5.518   5.732   7.250 -0.0523  0.9651 -0.0779
  812WAT     H218436   5.390   5.672   7.305  1.2946 -2.2905 -0.2815
  813WAT      O18437   1.059   2.822   0.412  0.2785  0.6258 -0.8412
  813WAT     H118438   1.086   2.875   0.337  0.6068  0.3288 -0.9332
  813WAT     H218439   1.140   2.802   0.458  0.2337 -0.3319 -1.1580
  814WAT      O18440   0.660   5.607   0.130 -0.3698 -0.4642  0.0662
  814WAT     H118441   0.740   5.595   0.181 -0.4676  0.1406  0.3634
  814WAT     H218442   0.591   5.620   0.195 -0.6277 -0.4954 -0.1995
  815WAT      O18443   3.665   2.824   6.249 -0.9235  0.0247 -0.4326
  815WAT     H118444   3.614   2.850   6.172 -1.5190 -1.0126 -0.4009
  815WAT     H218445   3.617   2.749   6.286 -0.6485  0.4917  0.9432
  816WAT      O18446   3.607   4.837   6.607  0.0292  0.0287  0.1306
  816WAT     H118447   3.671   4.907   6.612  0.8532 -0.4573 -2.1363
  816WAT     H218448   3.618   4.787   6.688  1.4780  0.8134  0.4412
  817WAT      O18449   2.519   0.403   6.386  0.2565 -0.2727  0.2338
  817WAT     H118450   2.537   0.470   6.319  0.2157 -0.5432 -0.0530
  817WAT     H218451   2.552   0.322   6.347 -0.8023 -0.6300  0.0529
  818WAT      O18452   5.939   4.671   1.156  0.4719  0.0754 -0.4310
  818WAT     H118453   5.982   4.727   1.220 -1.1315 -0.9198  1.6641
  818WAT     H218454   5.980   4.585   1.167 -1.7948 -0.8665  1.5469
  819WAT      O18455   5.828   2.859   7.847 -0.3237 -0.2090 -0.2952
  819WAT     H118456   5.851   2.918   7.775 -3.7187 -0.3888 -1.7203
  819WAT     H218457   5.819   2.773   7.806  0.9540 -1.0290  1.0447
  820WAT      O18458   3.746   5.286   7.923 -0.1875  0.3178 -0.8973
  820WAT     H118459   3.738   5.310   8.015  2.0998  0.6234 -0.7282
  820WAT     H218460   3.777   5.365   7.880 -4.2354  1.2217 -2.6359
  821WAT      O18461   2.882   3.242   6.496  0.9792 -0.4160  0.0169
  821WAT     H118462   2.884   3.268   6.404  0.5776 -1.5624 -0.3364
  821WAT     H218463   2.825   3.306   6.538  1.1340  0.0950 -0.5387
  822WAT      O18464   4.702   3.967   0.639 -0.2159  0.3452  1.0937
  822WAT     H118465   4.789   3.948   0.604  0.9378  1.0676  3.3726
  822WAT     H218466   4.694   3.909   0.714 -1.4918  0.6727  1.2257
  823WAT      O18467   3.384   4.072   7.811 -0.3995  0.5449 -0.0298
  823WAT     H118468   3.418   4.068   7.901 -1.0656 -0.0429  0.2081
  823WAT     H218469   3.384   3.981   7.781 -0.4217  0.7098 -0.5315
  824WAT      O18470   5.118   0.414   5.486  0.0134 -0.2511  0.4162
  824WAT     H118471   5.117   0.479   5.556  0.7699 -0.6844  0.8408
  824WAT     H218472   5.052   0.445   5.424  0.5489  1.0726  0.4730
  825WAT      O18473   4.684   3.105   2.314  0.0699  0.0798 -0.4861
  825WAT     H118474   4.589   3.101   2.312  0.1131 -1.7747 -2.1006
  825WAT     H218475   4.713   3.017   2.289  2.2396  0.1405  1.4171
  826WAT      O18476   5.002   5.751   7.081  0.4905  0.6376 -0.7084
  826WAT     H118477   4.982   5.827   7.027  1.4846 -0.2924 -2.4712
  826WAT     H218478   5.032   5.685   7.019  0.4308 -0.9327  0.8655
  827WAT      O18479   0.534   3.173   7.529  0.5330 -0.6384  0.7114
  827WAT     H118480   0.546   3.196   7.437  0.0012  0.2783  0.8607
  827WAT     H218481   0.442   3.195   7.547  0.5814 -0.9867  1.4122
  828WAT      O18482   0.101   0.547   7.353 -0.2922 -0.5675  0.2573
  828WAT     H118483   0.108   0.640   7.329 -2.0908 -0.3643  0.4026
  828WAT     H218484   0.110   0.500   7.270  1.0911 -0.3131  0.2422
  829WAT      O18485   3.512   2.286   7.190  0.1499 -0.4004 -0.1187
  829WAT     H118486   3.587   2.281   7.130 -1.1710 -1.0125 -1.7998
  829WAT     H218487   3.480   2.376   7.181  0.6493 -0.1472  0.5771
  830WAT      O18488   4.355   2.157   1.433 -0.4684  0.3462  0.1279
  830WAT     H118489   4.446   2.152   1.405 -0.9494  0.6202 -1.5502
  830WAT     H218490   4.331   2.248   1.421 -0.5513  0.6174  2.0325
  831WAT      O18491   1.022   2.661   1.332 -0.2875  0.2907  0.2170
  831WAT     H118492   1.033   2.746   1.374  0.9342  0.7826 -1.0179
  831WAT     H218493   1.055   2.674   1.243  0.0981 -1.5188  0.0557
  832WAT      O18494   2.406   0.032   0.821  0.3179  0.0473  0.1459
  832WAT     H118495   2.440   0.121   0.834 -1.2995  0.7551 -0.1447
  832WAT     H218496   2.364   0.036   0.735 -1.1917 -0.5100  0.8296
  833WAT      O18497   1.078   4.126   5.864  0.1335 -0.3497  0.1823
  833WAT     H118498   1.160   4.163   5.834 -0.8567 -0.0487 -2.4426
  833WAT     H218499   1.011   4.169   5.810 -1.3409 -3.6566 -0.9093
  834WAT      O18500   4.721   0.625   0.967 -0.4978 -0.2465  0.4865
  834WAT     H118501   4.708   0.545   0.917 -1.5650  0.9912 -1.3566
  834WAT     H218502   4.815   0.644   0.959 -0.8328  0.6451 -2.3663
  835WAT      O18503   3.783   5.123   0.368 -0.3743 -0.1342 -0.3252
  835WAT     H118504   3.809   5.060   0.300  0.1246 -1.2473  0.8498
  835WAT     H218505   3.803   5.078   0.451 -1.2963  1.0363  0.5674
  836WAT      O18506   4.802   2.711   1.104  0.0310 -0.1452  0.0968
  836WAT     H118507   4.848   2.793   1.116  0.7579 -0.2322 -1.7265
  836WAT     H218508   4.870   2.644   1.107 -0.4996 -0.6680  1.1384
  837WAT      O18509   0.340   3.934   7.382  0.0313  0.9189  0.2074
  837WAT     H118510   0.432   3.941   7.358  0.5844 -2.6823  0.6121
  837WAT     H218511   0.326   4.002   7.448  2.1016  2.1651 -0.5630
  838WAT      O18512   5.121   5.741   6.682  0.3686 -0.2427 -0.4813
  838WAT     H118513   5.122   5.827   6.724 -3.2400 -0.1371 -0.2608
  838WAT     H218514   5.048   5.746   6.619 -0.0339 -3.1214 -0.3881
  839WAT      O18515   2.679   4.202   6.016  0.2797 -0.6842 -0.0451
  839WAT     H118516   2.737   4.138   5.975 -0.2927  0.0648 -2.1150
  839WAT     H218517   2.622   4.232   5.946 -0.3464  1.1458  1.1682
  840WAT      O18518   3.430   2.701   7.351  0.0265 -0.0878 -0.2198
  840WAT     H118519   3.364   2.760   7.389 -1.0668 -0.6179 -1.2398
  840WAT     H218520   3.510   2.753   7.351 -0.2079  0.3608  1.6347
  841WAT      O18521   5.205   3.218   6.972  0.3074 -0.3931  0.5497
  841WAT     H118522   5.200   3.148   6.907  0.1962 -1.7083  1.9011
  841WAT     H218523   5.139   3.194   7.038 -1.8512  2.5232 -0.2974
  842WAT      O18524   1.589   2.747   7.458 -0.1816 -0.3329  0.7960
  842WAT     H118525   1.581   2.708   7.545 -0.8125 -0.2243  0.7894
  842WAT     H218526   1.681   2.773   7.452 -0.1034 -0.4589  1.3783
  843WAT      O18527   3.794   0.161   0.046 -0.0038  0.0741  0.5038
  843WAT     H118528   3.833   0.139   0.130  0.0162  0.8216  0.6996
  843WAT     H218529   3.789   0.257   0.046 -0.9795  0.0377  0.1085
  844WAT      O18530   0.814   1.715   6.539 -0.0243 -0.1204  0.1205
  844WAT     H118531   0.786   1.753   6.455  1.3101  0.0069 -0.3025
  844WAT     H218532   0.774   1.772   6.605  1.0085  1.4096 -0.4901
  845WAT      O18533   2.419   4.153   1.584 -0.4128  0.1414 -0.0313
  845WAT     H118534   2.427   4.247   1.602  0.7761 -0.0390  0.4670
  845WAT     H218535   2.448   4.111   1.665  1.6295 -0.6699 -1.1275
  846WAT      O18536   4.323   3.989   5.811  0.0669 -0.2579  0.1945
  846WAT     H118537   4.296   4.003   5.720 -1.2961  1.1928  0.7772
  846WAT     H218538   4.376   4.065   5.832 -0.3347 -0.1649  0.8746
  847WAT      O18539   5.137   3.424   0.466  0.1900  0.4307 -0.4856
  847WAT     H118540   5.114   3.508   0.426 -2.1674 -1.0211 -2.5211
  847WAT     H218541   5.184   3.377   0.397  1.7915  0.1306  0.7434
  848WAT      O18542   5.357   5.512   2.387 -0.3410  0.4555  0.5041
  848WAT     H118543   5.405   5.429   2.380  0.8967  0.8597  3.1278
  848WAT     H218544   5.399   5.569   2.322  1.0366 -0.0014  0.9533
  849WAT      O18545   4.610   4.841   6.269 -0.4499  0.1845 -0.0830
  849WAT     H118546   4.586   4.768   6.212 -0.7948  1.0738 -1.1199
  849WAT     H218547   4.537   4.903   6.261  0.0813  0.8842  0.3500
  850WAT      O18548   1.269   3.222   6.070 -0.2938  0.0040 -0.6203
  850WAT     H118549   1.246   3.136   6.035 -0.5354 -0.2519  0.1537
  850WAT     H218550   1.185   3.264   6.087 -0.2267 -0.6221  1.4546
  851WAT      O18551   2.591   3.054   7.614  0.1143  0.3960 -0.1230
  851WAT     H118552   2.651   3.098   7.554  1.7374  0.9216  1.8191
  851WAT     H218553   2.523   3.118   7.631 -0.3374  0.2643 -1.2982
  852WAT      O18554   1.482   0.631   1.831 -0.1241 -0.7363  0.7500
  852WAT     H118555   1.547   0.701   1.834 -0.5089 -0.3777  2.8283
  852WAT     H218556   1.509   0.575   1.758 -0.5005  2.1622 -1.7644
  853WAT      O18557   5.407   5.314   6.925 -0.2693  0.2848 -0.7672
  853WAT     H118558   5.342   5.247   6.906  1.8893 -1.6939 -1.6165
  853WAT     H218559   5.453   5.327   6.843  1.2097  0.7072  0.0824
  854WAT      O18560   1.531   5.375   6.458  0.3092 -0.0723 -0.2991
  854WAT     H118561   1.541   5.393   6.364  0.9072 -0.9034 -0.4060
  854WAT     H218562   1.447   5.330   6.465 -1.7601  3.4342  0.0994
  855WAT      O18563   6.110   2.737   1.556  0.1423  0.1323 -0.2086
  855WAT     H118564   6.147   2.688   1.483 -2.5745 -1.8446 -0.4062
  855WAT     H218565   6.122   2.680   1.632  0.3747  0.9041  0.3529
  856WAT      O18566   4.883   5.787   1.299 -0.2243  0.2982 -0.0511
  856WAT     H118567   4.861   5.877   1.325  1.3357  1.4636 -2.4281
  856WAT     H218568   4.882   5.789   1.203  0.5045 -2.0812 -0.1616
  857WAT      O18569   0.632   3.627   6.138  0.0412 -0.5651  0.8814
  857WAT     H118570   0.542   3.641   6.168 -0.2191  0.3167 -0.2405
  857WAT     H218571   0.686   3.670   6.204 -0.3986 -0.4256  1.1560
  858WAT      O18572   3.934   4.164   6.746  0.5822  0.2956 -0.3667
  858WAT     H118573   4.013   4.208   6.715  0.3830  1.0173  0.1249
  858WAT     H218574   3.903   4.217   6.819 -1.1901  0.8788 -1.4759
  859WAT      O18575   2.842   1.703   5.845 -0.1209 -0.0925  0.1348
  859WAT     H118576   2.870   1.668   5.930 -1.3509  0.2782  0.7162
  859WAT     H218577   2.782   1.637   5.810 -0.8190  0.4475  0.2772
  860WAT      O18578   1.222   1.582   6.727  0.0803 -0.4112  0.3763
  860WAT     H118579   1.310   1.543   6.720 -0.4048 -1.3816 -0.6287
  860WAT     H218580   1.236   1.663   6.776  1.8635  0.4339 -1.3749
  861WAT      O18581   4.618   5.618   7.464  0.5949 -0.6472 -0.0565
  861WAT     H118582   4.577   5.532   7.453 -2.9075  0.9678 -1.0325
  861WAT     H218583   4.692   5.617   7.403  0.1559 -2.6410 -0.6375
  862WAT      O18584   2.678   3.479   0.993  0.0175 -0.0719 -0.7082
  862WAT     H118585   2.603   3.527   0.959 -0.6642 -0.6322 -0.0213
  862WAT     H218586   2.713   3.535   1.063 -0.3547 -0.2476 -0.3771
  863WAT      O18587   0.089   0.217   6.564  0.2512 -0.0752  0.0514
  863WAT     H118588   0.027   0.245   6.497  0.7735 -0.0006 -0.4074
  863WAT     H218589   0.174   0.221   6.521  0.4792 -1.0945  0.3776
  864WAT      O18590   1.681   1.113   0.510 -0.2986 -0.0511 -0.2769
  864WAT     H118591   1.631   1.102   0.429  0.3552 -0.9885 -0.5744
  864WAT     H218592   1.704   1.206   0.512 -3.1622  0.7453  0.5624
  865WAT      O18593   4.016   4.059   0.867 -0.1651 -0.2841 -0.7854
  865WAT     H118594   3.994   4.131   0.927  0.2495 -1.4783  0.8964
  865WAT     H218595   3.993   3.980   0.916  0.4657 -1.3305 -2.1245
  866WAT      O18596   0.223   3.108   1.781  0.1851 -0.5571  0.4272
  866WAT     H118597   0.232   3.044   1.851 -0.2130 -0.1089  0.8897
  866WAT     H218598   0.254   3.190   1.818 -1.0179 -0.0791  0.4366
  867WAT      O18599   0.479   3.435   0.034 -0.0959  0.1428  0.0262
  867WAT     H118600   0.465   3.521  -0.005  1.0127 -0.1331 -1.0580
  867WAT     H218601   0.462   3.447   0.127 -0.0532  1.5147 -0.1271
  868WAT      O18602   3.654   3.753   6.664  0.6255 -0.6462  0.4527
  868WAT     H118603   3.679   3.844   6.682  2.7000 -1.2824  1.1039
  868WAT     H218604   3.734   3.703   6.679 -0.1265 -2.4568 -1.1270
  869WAT      O18605   0.114   2.314   1.325 -0.7002  0.2720  0.1857
  869WAT     H118606   0.097   2.369   1.402  1.5284 -1.6700  2.2448
  869WAT     H218607   0.170   2.368   1.269  1.4794  0.2131  2.1697
  870WAT      O18608   0.966   2.345   5.589  0.3533 -0.2737 -0.6151
  870WAT     H118609   1.018   2.319   5.513  1.8873  0.4626  0.1318
  870WAT     H218610   0.946   2.263   5.634 -2.1718 -0.9270 -2.7289
  871WAT      O18611   5.684   5.045   1.753 -0.0045  0.1662  0.1582
  871WAT     H118612   5.605   5.043   1.807 -1.7002  1.2576 -2.0991
  871WAT     H218613   5.746   4.988   1.798 -0.9139  1.7116  3.6892
  872WAT      O18614   0.145   5.583   7.278  0.1634 -0.0337 -0.2581
  872WAT     H118615   0.127   5.528   7.202  0.3576  1.0724 -1.1238
  872WAT     H218616   0.223   5.633   7.255  0.6973 -0.2335  0.9873
  873WAT      O18617   3.882   1.764   7.445 -0.3402 -0.2994  0.3060
  873WAT     H118618   3.941   1.716   7.388 -0.8856 -0.3590 -0.2255
  873WAT     H218619   3.813   1.797   7.386 -1.4791 -1.2394  1.0626
  874WAT      O18620   2.849   3.646   1.358 -0.3380  0.3089  0.3530
  874WAT     H118621   2.778   3.681   1.303 -0.0626  0.1310 -0.1177
  874WAT     H218622   2.805   3.622   1.440 -1.1296 -1.2509 -0.4771
  875WAT      O18623   5.096   5.361   1.655 -0.5475 -0.0732  0.1389
  875WAT     H118624   5.016   5.311   1.640  0.0872 -1.1977  0.3716
  875WAT     H218625   5.166   5.295   1.657  0.3032  0.8084  0.5859
  876WAT      O18626   0.671   6.083   1.326 -0.3626  0.2495 -0.4404
  876WAT     H118627   0.714   6.027   1.262  1.7615  1.6616 -0.3506
  876WAT     H218628   0.736   6.095   1.395 -1.4796  1.2285  0.4887
  877WAT      O18629   3.963   2.256   0.700 -0.1283 -0.0384  0.2991
  877WAT     H118630   3.902   2.219   0.765 -0.3567 -0.8026 -0.3284
  877WAT     H218631   3.953   2.199   0.624  1.4936 -0.2700  0.2325
  878WAT      O18632   4.993   4.778   7.446 -0.0207  0.2100 -0.2323
  878WAT     H118633   5.071   4.833   7.437  0.7163 -0.4018  1.8233
  878WAT     H218634   5.028   4.690   7.458 -1.1095 -0.3424 -0.9569
  879WAT      O18635   1.640   1.526   7.683 -0.1808 -0.4988 -0.0516
  879WAT     H118636   1.605   1.530   7.594 -1.5914  0.1609  0.4996
  879WAT     H218637   1.715   1.586   7.682 -1.7125  1.5432 -0.1953
  880WAT      O18638   1.718   0.489   6.732  0.4311 -0.9504 -0.1332
  880WAT     H118639   1.637   0.515   6.777 -0.9439 -1.2946 -2.2229
  880WAT     H218640   1.711   0.394   6.724  0.0943 -0.8065 -1.9323
  881WAT      O18641   5.227   3.494   7.066 -0.1874 -0.5673  0.5787
  881WAT     H118642   5.216   3.414   7.015 -1.9958 -1.5408  2.3389
  881WAT     H218643   5.285   3.469   7.138 -1.9412 -0.7949  1.9825
  882WAT      O18644   2.030   1.654   7.111 -0.6870  0.2666  0.3127
  882WAT     H118645   2.119   1.687   7.098 -0.6303  1.4076  3.0251
  882WAT     H218646   2.029   1.570   7.064  1.2325  1.0309 -1.2509
  883WAT      O18647   3.581   0.371   5.726 -0.6710 -0.0438  0.4328
  883WAT     H118648   3.528   0.297   5.757 -0.8145 -0.0970  0.0721
  883WAT     H218649   3.596   0.424   5.804  0.2674 -0.9656  0.8947
  884WAT      O18650   1.537   0.966   1.258 -0.4006 -0.0673  0.1477
  884WAT     H118651   1.576   1.042   1.303  1.2180  0.1248 -1.4676
  884WAT     H218652   1.592   0.892   1.284 -1.9424 -0.7457  1.6748
  885WAT      O18653   3.254   3.375   1.420  0.1464 -0.1629 -0.4741
  885WAT     H118654   3.264   3.290   1.463 -2.0692 -1.1047 -1.6774
  885WAT     H218655   3.160   3.393   1.423  0.5130  2.1128 -0.5744
  886WAT      O18656   1.171   0.301   6.930  0.1362  0.1861  0.7482
  886WAT     H118657   1.126   0.361   6.989  0.6583  0.9295  0.3982
  886WAT     H218658   1.216   0.357   6.867  0.8845 -0.5594  0.5941
  887WAT      O18659   0.711   3.265   6.797  0.6175 -0.3278  0.0941
  887WAT     H118660   0.728   3.228   6.711 -1.4008 -2.3024  0.4474
  887WAT     H218661   0.616   3.260   6.808  0.7111  0.7294  2.0831
  888WAT      O18662   3.670   2.754   0.077 -0.4117 -0.4590  0.0348
  888WAT     H118663   3.720   2.836   0.073 -0.7317 -0.2930 -0.6530
  888WAT     H218664   3.651   2.733  -0.014  0.0442 -1.5436  0.1795
  889WAT      O18665   4.479   6.231   7.530 -0.1370  1.0316 -0.4379
  889WAT     H118666   4.419   6.195   7.464 -0.6774 -2.0959  1.5537
  889WAT     H218667   4.422   6.265   7.598  0.1158 -1.8620  1.4225
  890WAT      O18668   4.639   2.365   1.752  0.2444 -0.5115 -0.7976
  890WAT     H118669   4.724   2.343   1.790  0.0153 -1.8305 -1.0000
  890WAT     H218670   4.602   2.281   1.725 -2.0147 -0.2481  1.1121
  891WAT      O18671   1.881   4.232   1.659 -0.0786 -0.1259  0.4051
  891WAT     H118672   1.827   4.298   1.617 -0.6553 -0.9550 -0.1574
  891WAT     H218673   1.860   4.241   1.752 -0.1610  0.4704  0.3310
  892WAT      O18674   3.002   1.528   6.374 -0.5886 -0.0698 -0.5651
  892WAT     H118675   3.039   1.614   6.352  0.7329  0.3648  2.6989
  892WAT     H218676   3.032   1.470   6.304  2.7185  1.1997 -0.3770
  893WAT      O18677   5.893   3.279   0.669 -0.2999 -1.0412  0.1261
  893WAT     H118678   5.935   3.290   0.755 -2.0827  0.4771  0.8722
  893WAT     H218679   5.800   3.292   0.686 -0.6248  0.1230 -2.1878
  894WAT      O18680   5.597   1.010   7.526  0.0513 -0.2829  0.5532
  894WAT     H118681   5.592   0.987   7.619 -1.1415 -1.0385  0.3345
  894WAT     H218682   5.591   0.926   7.480  0.3186  0.1040 -0.2192
  895WAT      O18683   1.403   0.805   1.595 -0.2638  0.2962 -0.3310
  895WAT     H118684   1.356   0.770   1.670 -1.6011  0.9107 -0.8591
  895WAT     H218685   1.447   0.884   1.628 -1.6722  1.1406 -0.3994
  896WAT      O18686   5.211   1.591   0.811 -0.7368  0.6129  0.6107
  896WAT     H118687   5.304   1.567   0.807 -1.5882 -3.4362  0.6062
  896WAT     H218688   5.194   1.636   0.729  0.4223 -2.5412 -1.5577
  897WAT      O18689   0.589   3.875   7.264  0.5226  0.0623  0.1875
  897WAT     H118690   0.658   3.821   7.226  0.2482 -0.3218  0.2359
  897WAT     H218691   0.617   3.889   7.355  0.8726  0.4733  0.0215
  898WAT      O18692   3.322   5.552   1.053 -0.0177 -0.2753 -0.1955
  898WAT     H118693   3.307   5.471   1.102  0.5589 -0.3644 -0.1611
  898WAT     H218694   3.394   5.531   0.993  0.0900  0.1914 -0.2335
  899WAT      O18695   5.726   3.917   0.729  0.2442 -0.1756 -0.4813
  899WAT     H118696   5.716   3.838   0.782 -0.9855  0.3946  0.1897
  899WAT     H218697   5.745   3.885   0.641  1.5693 -1.1518  0.1313
  900WAT      O18698   3.401   5.859   7.439  0.0458  0.1530  0.0497
  900WAT     H118699   3.309   5.870   7.417 -0.1364 -0.1894  0.6308
  900WAT     H218700   3.445   5.849   7.354 -0.3663  0.9045 -0.2534
  901WAT      O18701   4.055   1.878   1.642 -0.6897  0.1840 -0.5390
  901WAT     H118702   4.113   1.806   1.617 -0.6928 -0.2103  0.5373
  901WAT     H218703   3.981   1.835   1.684 -0.9028  0.7995 -0.2799
  902WAT      O18704   2.984   1.111   0.431  0.3874  0.5926 -0.1485
  902WAT     H118705   3.044   1.068   0.492  1.0357  0.5496 -0.8019
  902WAT     H218706   3.028   1.104   0.346 -0.0427  1.5218 -0.4523
  903WAT      O18707   3.470   4.422   2.174  0.1100  0.2233 -0.3293
  903WAT     H118708   3.495   4.353   2.113  0.6386  1.8242 -2.0285
  903WAT     H218709   3.399   4.384   2.226  0.4762 -1.6208 -1.0995
  904WAT      O18710   6.005   1.908   2.071 -0.4500  0.7432 -0.0192
  904WAT     H118711   6.025   1.821   2.104  0.5847  0.9970  0.0411
  904WAT     H218712   6.090   1.946   2.050 -0.7088  2.4467  1.7464
  905WAT      O18713   3.194   3.426   5.667  0.2678 -0.1266 -0.3745
  905WAT     H118714   3.180   3.518   5.646  0.1317 -0.2201 -0.6893
  905WAT     H218715   3.106   3.389   5.676  0.2960  0.1371  1.3777
  906WAT      O18716   5.939   3.236   1.509 -0.7553  0.2065 -0.3114
  906WAT     H118717   5.890   3.275   1.582 -0.9553 -1.0546  0.2401
  906WAT     H218718   6.026   3.275   1.516 -1.2192  1.2911 -0.3583
  907WAT      O18719   1.160   5.614   6.437 -0.2152 -0.7099 -0.2213
  907WAT     H118720   1.153   5.694   6.385  0.8800  0.5455  1.4489
  907WAT     H218721   1.108   5.550   6.390 -1.6285  1.1436 -1.3219
  908WAT      O18722   5.648   5.341   0.935 -0.6186  0.4506 -0.0965
  908WAT     H118723   5.594   5.408   0.892 -0.3207  0.3242 -0.6918
  908WAT     H218724   5.734   5.351   0.894 -0.6845 -0.5856 -0.5117
  909WAT      O18725   2.022   5.274   6.741  0.0609 -0.2386 -0.0835
  909WAT     H118726   2.020   5.183   6.710  1.3528  0.1347 -1.4017
  909WAT     H218727   2.114   5.290   6.761 -0.3655  0.3793  1.5074
  910WAT      O18728   3.281   1.408   0.252  0.0764  0.1120 -0.0284
  910WAT     H118729   3.350   1.378   0.192  0.7870  1.7484 -0.0634
  910WAT     H218730   3.318   1.396   0.339  0.5311  1.2334 -0.0547
  911WAT      O18731   5.154   0.468   1.053  0.6454  0.2029  0.0130
  911WAT     H118732   5.098   0.423   1.117  0.4258  1.0791  0.4549
  911WAT     H218733   5.242   0.459   1.089  0.7097 -0.5713 -0.3223
  912WAT      O18734   4.274   3.459   7.204 -0.2479 -0.1926  0.2129
  912WAT     H118735   4.277   3.366   7.183 -0.4511 -0.3209  0.7444
  912WAT     H218736   4.330   3.468   7.281 -0.2153  0.1289  0.1545
  913WAT      O18737   3.760   0.802   0.436  0.3771  0.5593 -0.0909
  913WAT     H118738   3.665   0.814   0.431  0.3720  0.4972 -0.1340
  913WAT     H218739   3.791   0.814   0.346  0.4709  1.1102  0.0066
  914WAT      O18740   3.746   4.859   6.334  0.1251 -0.4858 -0.1972
  914WAT     H118741   3.830   4.845   6.377 -0.4264  1.0618  1.4823
  914WAT     H218742   3.689   4.792   6.373 -0.3895  0.9429  1.6915
  915WAT      O18743   4.158   2.402   7.318  0.4080  0.6278 -0.7605
  915WAT     H118744   4.140   2.349   7.396 -2.2829  0.1674 -1.5991
  915WAT     H218745   4.244   2.441   7.335 -0.7257  1.8599  3.1460
  916WAT      O18746   0.969   3.915   0.184  0.2079  0.5826  0.9375
  916WAT     H118747   0.942   3.828   0.212  2.0281  0.8329  3.8592
  916WAT     H218748   0.913   3.975   0.234 -0.1660  1.1295 -0.1015
  917WAT      O18749   0.725   4.359   7.206 -0.1399  0.6197 -0.2102
  917WAT     H118750   0.661   4.333   7.139 -1.1954 -0.1579  1.0574
  917WAT     H218751   0.683   4.430   7.254  1.4472  2.6203 -1.6108
  918WAT      O18752   5.440   2.352   2.432 -0.4338  0.2524  0.4334
  918WAT     H118753   5.501   2.299   2.380 -0.2414 -0.5512  1.4332
  918WAT     H218754   5.354   2.316   2.411 -0.3467 -0.1431  0.7262
  919WAT      O18755   5.003   2.839   1.928  0.3739 -0.8799  0.2554
  919WAT     H118756   5.025   2.826   1.836  0.6266 -1.6146  0.4178
  919WAT     H218757   4.917   2.798   1.938 -0.4160  0.6118 -0.0110
  920WAT      O18758   4.097   0.430   6.062  0.0371  0.3820 -0.6199
  920WAT     H118759   4.051   0.414   5.980  1.0026  1.5589 -1.4483
  920WAT     H218760   4.162   0.360   6.067 -0.5666 -0.1695 -0.4298
  921WAT      O18761   2.593   1.608   0.497 -0.3641  0.1685 -0.6684
  921WAT     H118762   2.568   1.651   0.415 -0.1724  2.2929  0.3351
  921WAT     H218763   2.679   1.571   0.479 -0.8284 -0.4232 -1.7729
  922WAT      O18764   3.463   4.159   1.010 -0.0024 -0.5356 -0.5076
  922WAT     H118765   3.544   4.151   0.960 -0.5459 -1.0845 -1.3189
  922WAT     H218766   3.393   4.156   0.944 -0.6509  1.4832  0.0239
  923WAT      O18767   5.886   2.885   2.363  0.4315  0.2425 -0.3244
  923WAT     H118768   5.927   2.825   2.300  0.1961  0.9143 -1.1366
  923WAT     H218769   5.951   2.893   2.433  0.3627 -1.1473 -0.0667
  924WAT      O18770   3.630   4.713   0.272  0.4553 -0.4412  0.3061
  924WAT     H118771   3.552   4.726   0.219 -0.2065 -0.7160  1.1876
  924WAT     H218772   3.674   4.637   0.234  0.9840  0.4661 -0.9687
  925WAT      O18773   2.327   6.102   1.050  0.4454  0.3952  0.1818
  925WAT     H118774   2.403   6.068   1.096 -0.5096 -0.7587  0.9904
  925WAT     H218775   2.352   6.190   1.022  2.0136  0.0826  0.5197
  926WAT      O18776   2.540   0.884   0.874  0.3483 -0.4381  0.3158
  926WAT     H118777   2.556   0.973   0.842  0.1462 -0.6731 -0.4573
  926WAT     H218778   2.452   0.888   0.913  0.7527 -0.0543  1.2307
  927WAT      O18779   1.085   1.863   0.770 -0.4951 -0.1250 -0.1116
  927WAT     H118780   1.095   1.776   0.809  0.6142  0.4218  0.9107
  927WAT     H218781   1.038   1.848   0.688  1.0823 -1.8918 -0.7649
  928WAT      O18782   1.114   0.025   7.464  0.4466 -0.1647  0.1363
  928WAT     H118783   1.044   0.083   7.494 -1.0404 -2.5680  1.6696
  928WAT     H218784   1.186   0.084   7.441 -0.6002  2.2543  2.4726
  929WAT      O18785   2.543   2.817   6.475  0.0982  0.4375 -0.3567
  929WAT     H118786   2.548   2.773   6.390  0.2303  1.5099 -0.9235
  929WAT     H218787   2.615   2.880   6.474 -0.2935  0.9164  0.2799
  930WAT      O18788   1.151   2.534   7.291 -0.1825  0.0534 -0.8232
  930WAT     H118789   1.198   2.532   7.208  1.2080  2.7295 -0.2062
  930WAT     H218790   1.189   2.608   7.339 -2.4510 -0.0197  1.3115
  931WAT      O18791   4.167   1.747   2.159  0.6545  0.8313  0.4062
  931WAT     H118792   4.239   1.688   2.138 -0.5214 -0.1368 -1.0372
  931WAT     H218793   4.120   1.759   2.077 -0.5168  1.9054  1.1917
  932WAT      O18794   2.357   1.694   0.195 -0.5487 -0.2434  0.1790
  932WAT     H118795   2.296   1.652   0.256  0.3016 -0.0488  1.1874
  932WAT     H218796   2.347   1.788   0.212  1.2099 -0.2530  1.5766
  933WAT      O18797   3.574   1.512   1.112 -0.1478 -0.2864  0.2819
  933WAT     H118798   3.532   1.426   1.106 -0.5384 -0.0204 -1.6120
  933WAT     H218799   3.668   1.493   1.108 -0.2406 -0.6292 -0.5551
  934WAT      O18800   2.709   3.212   1.062  0.7316 -0.1705 -0.5602
  934WAT     H118801   2.729   3.282   1.124  1.5791 -0.9193  0.0384
  934WAT     H218802   2.634   3.245   1.012 -1.1768 -0.2431  2.0357
  935WAT      O18803   5.739   3.584   0.696 -0.0304 -0.0841 -0.5633
  935WAT     H118804   5.714   3.616   0.783  1.6328  1.0423 -0.4453
  935WAT     H218805   5.658   3.550   0.659 -0.9632  0.2062  1.0887
  936WAT      O18806   5.035   5.276   6.032  0.4204 -0.1810  0.1686
  936WAT     H118807   5.081   5.345   6.081 -0.7436  0.0584  0.9722
  936WAT     H218808   5.089   5.261   5.955  1.3276  0.7745  0.5931
  937WAT      O18809   1.421   4.930   7.566  0.2463  0.0779  0.0034
  937WAT     H118810   1.499   4.928   7.510  0.3232 -1.8051  0.1054
  937WAT     H218811   1.371   4.853   7.539 -0.8993  0.4843  0.9062
  938WAT      O18812   5.474   3.927   1.348  0.1214 -0.4372  0.4887
  938WAT     H118813   5.511   3.906   1.434  0.7482 -0.8627  0.1228
  938WAT     H218814   5.380   3.932   1.363  0.2232 -0.5482  1.1941
  939WAT      O18815   3.813   0.410   6.727 -0.3868  0.2686 -0.0906
  939WAT     H118816   3.896   0.374   6.758 -0.1383  0.1392 -0.8753
  939WAT     H218817   3.827   0.427   6.634 -0.8645  1.3537  0.0155
  940WAT      O18818   5.637   4.304   7.827 -0.2988 -0.2869  0.1902
  940WAT     H118819   5.563   4.363   7.837 -0.5853 -0.8089  1.5052
  940WAT     H218820   5.665   4.287   7.917  0.2361 -1.5514 -0.1943
  941WAT      O18821   5.844   0.657   1.173  0.7208 -0.3632  0.0695
  941WAT     H118822   5.897   0.578   1.176  1.4634 -0.0165 -2.0387
  941WAT     H218823   5.756   0.628   1.198  1.0445 -1.8072 -0.3810
  942WAT      O18824   1.198   3.592   7.769 -0.2527 -0.0436  0.5785
  942WAT     H118825   1.225   3.684   7.767 -1.3926  0.2827 -0.3132
  942WAT     H218826   1.279   3.543   7.752  0.1802  0.8382  0.0402
  943WAT      O18827   0.158   2.661   7.722  0.5037 -0.5107 -0.0821
  943WAT     H118828   0.121   2.612   7.649  0.3116 -1.6386  0.7471
  943WAT     H218829   0.253   2.655   7.709  0.4591 -0.2103 -0.5541
  944WAT      O18830   4.054   2.630   7.237  0.2845 -0.3979 -0.3064
  944WAT     H118831   4.102   2.563   7.286  2.1651 -0.0539 -1.5887
  944WAT     H218832   4.073   2.712   7.284 -1.0589 -0.5598  0.5751
  945WAT      O18833   1.868   2.777   7.092  0.0612  0.4461  0.2292
  945WAT     H118834   1.858   2.846   7.027 -3.1236  0.4442  0.5724
  945WAT     H218835   1.880   2.824   7.175  1.5525  0.4787  0.0210
  946WAT      O18836   3.846   6.233   0.917  0.2848 -0.7038  0.6250
  946WAT     H118837   3.864   6.265   1.005 -1.1750  0.6241  0.5078
  946WAT     H218838   3.768   6.178   0.927  0.0253 -0.4335  0.1732
  947WAT      O18839   3.562   5.779   0.895  0.0978  0.0449 -0.3187
  947WAT     H118840   3.582   5.688   0.873 -0.7403 -0.3788  0.5914
  947WAT     H218841   3.591   5.790   0.985 -1.2469  0.1963  0.1159
  948WAT      O18842   5.005   0.241   7.914  0.4429  0.5035 -0.5149
  948WAT     H118843   5.080   0.216   7.859  0.9139 -0.6077  0.5694
  948WAT     H218844   4.996   0.335   7.901  2.3774  0.7746 -0.2919
  949WAT      O18845   4.314   4.973   7.208  0.0328  0.0215 -0.2334
  949WAT     H118846   4.344   4.959   7.118  2.5153 -1.1029  0.6829
  949WAT     H218847   4.384   5.025   7.249 -0.5654 -0.3206  1.3001
  950WAT      O18848   3.980   2.760   0.581 -0.0392 -0.7533 -0.2636
  950WAT     H118849   3.966   2.669   0.606 -0.5316 -0.0347  2.4173
  950WAT     H218850   3.943   2.811   0.654  2.5937  1.5478 -0.3638
  951WAT      O18851   6.113   1.021   7.326  0.6117  0.1642 -0.7424
  951WAT     H118852   6.170   0.944   7.325 -1.4083 -1.4259 -1.8859
  951WAT     H218853   6.171   1.094   7.347  2.3881 -1.8105  1.8121
  952WAT      O18854   4.319   1.057   0.085  0.1633 -0.1873 -0.0257
  952WAT     H118855   4.270   1.047   0.166 -0.8953 -0.1785 -0.6451
  952WAT     H218856   4.359   0.971   0.071 -1.2386 -0.8063 -0.4741
  953WAT      O18857   0.486   5.666   2.413 -0.0991 -0.1130  0.7183
  953WAT     H118858   0.492   5.697   2.503  0.4806 -1.4232  1.1548
  953WAT     H218859   0.568   5.618   2.399  0.2673  0.8794 -0.8354
  954WAT      O18860   0.192   5.324   0.222 -0.3162 -0.5794  0.2520
  954WAT     H118861   0.160   5.303   0.134  0.7589 -0.9914 -0.0478
  954WAT     H218862   0.268   5.268   0.234  0.3476  0.4316  0.9259
  955WAT      O18863   0.218   5.667   0.439  0.5511  0.1103  0.4118
  955WAT     H118864   0.197   5.741   0.382  0.2611  0.0924  0.4940
  955WAT     H218865   0.133   5.630   0.462  0.5428  1.1836  2.2822
  956WAT      O18866   1.825   1.617   1.397 -0.1565  0.3269  0.1046
  956WAT     H118867   1.803   1.646   1.486  0.4925  0.2227  0.3022
  956WAT     H218868   1.920   1.610   1.397 -0.1570  0.2676 -0.5853
  957WAT      O18869   4.696   1.570   6.618  0.2599 -0.3358 -0.4487
  957WAT     H118870   4.674   1.642   6.678 -1.1950  0.1403 -1.4793
  957WAT     H218871   4.790   1.566   6.619  0.3644  1.2796  0.0245
  958WAT      O18872   1.257   2.410   0.378 -0.3621 -0.1500 -0.2535
  958WAT     H118873   1.270   2.417   0.283 -1.4119 -2.6372 -0.6542
  958WAT     H218874   1.162   2.416   0.390 -0.4462 -1.9693  0.3490
  959WAT      O18875   2.551   2.568   0.699 -0.1051 -0.2061 -0.0533
  959WAT     H118876   2.523   2.618   0.623 -0.7947 -1.5904 -0.7391
  959WAT     H218877   2.645   2.555   0.686 -0.2585 -0.6222 -0.8065
  960WAT      O18878   0.043   1.337   6.177  0.0988  0.5770 -0.0924
  960WAT     H118879   0.096   1.271   6.133  1.9166  1.1908  1.0624
  960WAT     H218880  -0.036   1.343   6.124  1.9819  1.0564 -3.1192
  961WAT      O18881   4.367   3.960   0.827 -0.2315 -0.3029  0.0185
  961WAT     H118882   4.302   3.900   0.864 -0.6674  0.0427 -0.1831
  961WAT     H218883   4.445   3.905   0.813  0.7868 -0.0168  3.5938
  962WAT      O18884   3.380   4.780   0.148 -0.5096  0.3670 -0.2415
  962WAT     H118885   3.291   4.770   0.181 -0.4207 -0.1010 -0.1201
  962WAT     H218886   3.390   4.710   0.083  0.5445 -1.2372  1.5066
  963WAT      O18887   5.682   5.062   7.405 -0.4291 -0.0945  0.0115
  963WAT     H118888   5.591   5.035   7.409 -1.2983  2.6564  2.8121
  963WAT     H218889   5.682   5.140   7.349 -0.0008  0.4478  0.7462
  964WAT      O18890   5.421   2.461   0.569  0.1764 -0.1718 -0.2413
  964WAT     H118891   5.475   2.476   0.491  0.8050 -1.0280  0.0146
  964WAT     H218892   5.384   2.374   0.556  1.6015 -1.0350  1.1478
  965WAT      O18893   2.937   3.000   1.085 -0.2047  0.5651  0.6358
  965WAT     H118894   2.873   3.070   1.069 -0.5317  0.1773  0.2426
  965WAT     H218895   3.009   3.044   1.130 -0.3463  1.1881  0.2668
  966WAT      O18896   2.246   0.991   6.170 -0.1553 -0.7076 -0.2094
  966WAT     H118897   2.264   1.041   6.090 -0.0936  0.5164  0.5328
  966WAT     H218898   2.261   0.900   6.146  0.9072 -0.2662 -1.3026
  967WAT      O18899   0.803   1.824   0.058  0.2210 -0.2492  0.3275
  967WAT     H118900   0.743   1.892   0.090  0.7342  0.1162  0.5205
  967WAT     H218901   0.755   1.783  -0.015 -0.5417 -0.4203  0.9074
  968WAT      O18902   0.818   2.909   0.537 -0.6561  0.0999  0.4382
  968WAT     H118903   0.858   2.961   0.607 -0.5539  1.0814 -0.3143
  968WAT     H218904   0.891   2.890   0.478 -1.3018  2.3361 -1.2106
  969WAT      O18905   0.019   0.186   1.595 -0.0757 -0.0701 -0.2713
  969WAT     H118906   0.100   0.154   1.557 -0.7491 -1.0980 -0.8848
  969WAT     H218907   0.018   0.151   1.684  0.5098  0.5970  0.0069
  970WAT      O18908   0.446   2.118   0.313  0.1107  0.5703  0.1377
  970WAT     H118909   0.351   2.122   0.325 -0.0935  0.0544 -1.1459
  970WAT     H218910   0.476   2.206   0.334 -0.8485  1.1696 -0.8845
  971WAT      O18911   5.191   5.863   2.119 -0.4045  0.4794 -0.1204
  971WAT     H118912   5.219   5.931   2.180 -1.3317  2.0290 -1.3463
  971WAT     H218913   5.264   5.854   2.057 -1.2995  2.3427 -1.5320
  972WAT      O18914   3.231   4.138   0.381 -0.0371 -0.0480 -0.6122
  972WAT     H118915   3.193   4.065   0.430  0.3390 -0.0288 -0.2862
  972WAT     H218916   3.186   4.137   0.297 -2.1289  1.0870  0.4035
  973WAT      O18917   5.042   5.077   6.208 -0.1230  0.0229 -0.4101
  973WAT     H118918   4.977   5.096   6.276 -0.9755 -0.9185 -0.9238
  973WAT     H218919   5.024   5.141   6.139  0.4542  0.6921  0.0435
  974WAT      O18920   1.646   5.953   6.919  0.3002  0.0408  0.3412
  974WAT     H118921   1.630   5.869   6.875 -1.5190  0.5423 -0.0318
  974WAT     H218922   1.617   6.019   6.857  1.3905  0.9448  0.7717
  975WAT      O18923   3.230   4.594   1.479  0.4235  0.4898  0.3216
  975WAT     H118924   3.187   4.679   1.486  1.0660  1.0441 -1.8891
  975WAT     H218925   3.231   4.560   1.569 -5.3053  0.0282  0.5181
  976WAT      O18926   1.146   5.847   7.591 -0.1733 -0.1036 -0.3576
  976WAT     H118927   1.145   5.822   7.499 -0.8164  0.9775 -0.6594
  976WAT     H218928   1.190   5.932   7.593  1.3084 -0.8488  0.5468
  977WAT      O18929   1.985   4.081   1.247  0.4810 -0.0134  0.0336
  977WAT     H118930   2.032   4.163   1.229  0.1862 -0.1429 -1.4218
  977WAT     H218931   2.054   4.015   1.251  1.0731  0.6153  4.0332
  978WAT      O18932   3.285   1.235   7.283  0.7103 -0.1934  0.3551
  978WAT     H118933   3.283   1.295   7.208  0.8930  2.4191  2.2786
  978WAT     H218934   3.378   1.218   7.297  0.6917 -0.4804  0.1199
  979WAT      O18935   2.693   5.725   0.436  0.0345  0.3382  0.2805
  979WAT     H118936   2.660   5.791   0.497  2.4666  1.4819  0.5072
  979WAT     H218937   2.770   5.766   0.397  0.0819 -1.4031 -1.5831
  980WAT      O18938   5.755   0.940   0.992  0.3319 -0.1388 -0.3720
  980WAT     H118939   5.796   1.026   0.989  0.5516 -0.2005  0.5332
  980WAT     H218940   5.751   0.918   1.085 -0.2556 -0.8543 -0.5497
  981WAT      O18941   0.693   6.120   7.197  0.3900 -0.1340  0.4459
  981WAT     H118942   0.625   6.055   7.182  1.1233 -1.1559  1.3183
  981WAT     H218943   0.754   6.077   7.257  1.3763  1.0428  0.3349
  982WAT      O18944   5.364   3.721   0.347 -0.2918  0.2270 -0.3468
  982WAT     H118945   5.394   3.808   0.321 -0.7474  0.2408 -0.8301
  982WAT     H218946   5.275   3.716   0.314 -0.4782 -0.1924  0.2164
  983WAT      O18947   3.658   5.529   7.517 -0.4144 -0.2297 -0.0524
  983WAT     H118948   3.632   5.527   7.425 -0.4337 -2.6270 -0.0611
  983WAT     H218949   3.582   5.566   7.563 -0.6494  0.3734 -0.9116
  984WAT      O18950   5.316   0.596   6.746  0.5110  0.2968  0.0852
  984WAT     H118951   5.356   0.547   6.674  1.9190  0.2517  0.8630
  984WAT     H218952   5.249   0.538   6.780 -0.4948  0.4917 -1.4478
  985WAT      O18953   5.199   5.940   6.865 -0.2383 -0.5819  0.4189
  985WAT     H118954   5.264   5.906   6.926  0.0707  1.4190  1.2762
  985WAT     H218955   5.217   6.034   6.860 -2.0013 -0.2434 -0.6250
  986WAT      O18956   1.324   2.361   6.320 -0.3615  0.0181  0.3112
  986WAT     H118957   1.350   2.310   6.243  0.5372  1.2211 -0.2160
  986WAT     H218958   1.274   2.435   6.285  0.4297  0.8188  0.8180
  987WAT      O18959   2.295   4.979   6.239 -0.6280  0.3588  0.5260
  987WAT     H118960   2.315   5.006   6.329  0.5135  1.3505 -0.0072
  987WAT     H218961   2.311   5.056   6.186  1.5692 -0.9838 -0.9111
  988WAT      O18962   1.554   5.431   6.896  0.0673 -0.1228 -0.0841
  988WAT     H118963   1.557   5.405   6.988  0.5311 -0.5474 -0.2134
  988WAT     H218964   1.462   5.452   6.879 -0.6133 -2.8083 -0.2626
  989WAT      O18965   0.686   0.198   7.710 -0.0796  0.1063  0.2656
  989WAT     H118966   0.691   0.105   7.689  0.6725  0.0230  0.7518
  989WAT     H218967   0.731   0.242   7.638 -0.8019  0.1322 -0.1748
  990WAT      O18968   2.442   0.448   1.086  0.0385 -0.0712  0.0327
  990WAT     H118969   2.399   0.419   1.005 -1.5544 -2.5602  1.6370
  990WAT     H218970   2.523   0.489   1.057 -1.1077  0.3791 -2.8770
  991WAT      O18971   3.471   5.729   6.743  0.6018  0.1915  0.1003
  991WAT     H118972   3.554   5.775   6.751  1.5671 -1.3743 -0.4525
  991WAT     H218973   3.489   5.655   6.684 -1.2562 -0.0176 -0.2911
  992WAT      O18974   0.470   5.617   1.375 -0.1536  0.2790 -0.1892
  992WAT     H118975   0.443   5.554   1.442 -0.1422  0.8281  0.3385
  992WAT     H218976   0.430   5.585   1.294 -1.5269  0.5133  0.3888
  993WAT      O18977   4.920   2.378   6.519 -0.6265  0.1161 -0.0171
  993WAT     H118978   4.859   2.420   6.458 -1.8593 -1.5592 -0.0110
  993WAT     H218979   4.910   2.284   6.501  2.5825 -0.2399 -0.5996
  994WAT      O18980   3.551   4.691   7.083 -0.5409 -0.2582  0.5567
  994WAT     H118981   3.565   4.743   7.162  0.8919  0.0016  0.1658
  994WAT     H218982   3.637   4.689   7.040 -1.6781  1.3954 -2.0853
  995WAT      O18983   2.488   0.772   7.377  0.0916 -0.5073 -0.0539
  995WAT     H118984   2.417   0.730   7.330 -0.1165  1.0302 -1.1931
  995WAT     H218985   2.568   0.740   7.335 -0.0362 -0.2616 -0.4813
  996WAT      O18986   0.217   3.352   2.143 -0.4081  0.0051 -0.5767
  996WAT     H118987   0.179   3.351   2.055 -3.7077 -1.5893  0.6929
  996WAT     H218988   0.264   3.269   2.151  0.3481  0.3854 -0.9665
  997WAT      O18989   4.081   1.256   0.817  0.2612 -0.4635  0.2211
  997WAT     H118990   4.145   1.272   0.886  0.5982 -0.3116 -0.1213
  997WAT     H218991   4.132   1.224   0.744  0.3670  2.1970 -0.9956
  998WAT      O18992   1.716   1.778   1.178 -0.1472  0.5376  0.2632
  998WAT     H118993   1.645   1.751   1.235 -1.1991 -0.7609 -1.5511
  998WAT     H218994   1.796   1.757   1.226 -0.9683 -2.3809  0.5076
  999WAT      O18995   5.374   4.108   6.891 -0.1757 -0.1565  0.5646
  999WAT     H118996   5.295   4.110   6.944 -0.0093 -1.4848  0.9005
  999WAT     H218997   5.349   4.146   6.807  0.0781  4.1781  2.1655
 1000WAT      O18998   1.008   5.772   0.614  0.4163  0.4527 -0.0556
 1000WAT     H118999   0.997   5.677   0.609 -1.7326  0.7300 -2.0191
 1000WAT     H219000   1.098   5.784   0.644  1.1554 -2.1931 -0.9588
 1001WAT      O19001   3.251   5.815   1.937 -0.3911 -0.4235  0.1790
 1001WAT     H119002   3.192   5.802   1.863 -0.3720  0.9108 -0.0946
 1001WAT     H219003   3.327   5.860   1.899  0.6703 -1.7901  0.5940
 1002WAT      O19004   0.806   0.480   0.570 -0.3362 -0.6878  0.1332
 1002WAT     H119005   0.719   0.507   0.599 -0.7956 -0.0098 -1.7118
 1002WAT     H219006   0.801   0.484   0.474  2.1562  0.9332 -0.0261
 1003WAT      O19007   1.110   1.521   0.626 -0.2237  0.3252 -0.1927
 1003WAT     H119008   1.075   1.456   0.566  0.0189  1.3775 -1.5145
 1003WAT     H219009   1.033   1.557   0.670 -0.5088  0.3581 -0.7171
 1004WAT      O19010   1.104   2.300   1.815 -0.1809 -0.2318 -0.0260
 1004WAT     H119011   1.196   2.301   1.792 -0.3139  3.5626 -1.0286
 1004WAT     H219012   1.102   2.282   1.909  1.5637 -0.2247  0.0295
 1005WAT      O19013   5.759   4.379   7.534 -0.5867 -0.0179  0.1458
 1005WAT     H119014   5.758   4.316   7.605 -1.0057  0.8971  0.9701
 1005WAT     H219015   5.704   4.451   7.564 -0.4991  0.5402 -0.9621
 1006WAT      O19016   1.976   5.832   7.938 -0.4303 -0.2615 -0.1110
 1006WAT     H119017   1.968   5.887   7.860  1.0121  1.0059  0.5634
 1006WAT     H219018   1.922   5.875   8.004  0.0838 -0.0878  0.2010
 1007WAT      O19019   1.090   3.742   7.015 -0.3875 -0.5787  0.2234
 1007WAT     H119020   1.024   3.749   7.084 -0.0029 -1.0090  0.6399
 1007WAT     H219021   1.162   3.798   7.045 -1.2824  1.4329 -1.1156
 1008WAT      O19022   1.447   3.702   7.439  0.1553 -0.0958 -0.2120
 1008WAT     H119023   1.442   3.639   7.511  0.2335  0.6169  0.4445
 1008WAT     H219024   1.491   3.778   7.478 -1.5400  1.0582 -0.4560
 1009WAT      O19025   4.648   5.888   0.911  0.3393 -0.5137  0.0546
 1009WAT     H119026   4.631   5.932   0.994 -1.7843 -0.4836 -0.3234
 1009WAT     H219027   4.719   5.826   0.930 -0.3731 -0.8128  2.0091
 1010WAT      O19028   6.021   5.670   5.535  0.7166 -0.7419 -0.4248
 1010WAT     H119029   5.959   5.708   5.473  0.1207  0.4975  0.8897
 1010WAT     H219030   5.975   5.671   5.619  2.5029  0.2321  0.5944
 1011WAT      O19031   0.085   0.289   1.179  0.5653 -0.3213 -0.1306
 1011WAT     H119032   0.018   0.252   1.236  1.5596 -1.5401  0.3271
 1011WAT     H219033   0.167   0.277   1.229  1.2390  0.1484 -1.0954
 1012WAT      O19034   0.971   2.553   0.319  0.3546 -0.0995 -0.0144
 1012WAT     H119035   0.997   2.642   0.343  1.0201 -0.2401 -0.2052
 1012WAT     H219036   0.926   2.520   0.396  0.6975  0.1666  0.3029
 1013WAT      O19037   4.782   3.828   7.192  0.1869  0.0574 -0.1584
 1013WAT     H119038   4.808   3.740   7.168  2.2974  1.1875 -2.4642
 1013WAT     H219039   4.715   3.852   7.128  1.2001  0.8377 -0.9691
 1014WAT      O19040   4.812   3.419   0.714  0.4504 -0.0510  0.0252
 1014WAT     H119041   4.868   3.341   0.714 -0.1092 -0.4620 -0.6708
 1014WAT     H219042   4.744   3.400   0.650 -1.2294 -0.0735  1.7419
 1015WAT      O19043   4.674   0.756   1.784  0.1548  0.0699 -0.5582
 1015WAT     H119044   4.677   0.743   1.689  1.3234 -0.8266 -0.4255
 1015WAT     H219045   4.732   0.830   1.799 -0.2393  0.3833 -0.5588
 1016WAT      O19046   1.421   3.252   6.291  0.0331  0.6696  0.0009
 1016WAT     H119047   1.358   3.277   6.223  0.4663  0.0408 -0.6520
 1016WAT     H219048   1.500   3.302   6.271 -0.2113  1.3700  0.7511
 1017WAT      O19049   5.573   1.660   1.527  0.0798  0.9724 -0.0054
 1017WAT     H119050   5.486   1.698   1.519  0.6960  2.1920 -1.1371
 1017WAT     H219051   5.571   1.583   1.470 -0.6370  0.2179  0.9915
 1018WAT      O19052   1.268   6.058   6.990 -0.3029 -0.1495 -0.2140
 1018WAT     H119053   1.257   6.145   6.951  1.1477 -0.5017 -1.5276
 1018WAT     H219054   1.263   6.072   7.084 -0.8011  1.2382 -0.4324
 1019WAT      O19055   0.429   4.376   6.029  0.7749 -0.0831  0.4003
 1019WAT     H119056   0.353   4.428   6.003  1.1764  1.8431  2.7047
 1019WAT     H219057   0.484   4.375   5.951 -0.8536 -0.1183 -0.8032
 1020WAT      O19058   3.159   6.199   7.103 -0.2465  0.2284  0.0681
 1020WAT     H119059   3.208   6.161   7.176  1.0732  0.8553 -0.4566
 1020WAT     H219060   3.130   6.123   7.051 -2.4584 -0.3284  1.9342
 1021WAT      O19061   4.819   1.210   6.507 -0.1298  0.0371 -0.5136
 1021WAT     H119062   4.867   1.282   6.467  0.1548  0.4837  0.5724
 1021WAT     H219063   4.788   1.245   6.591 -2.9249 -0.0410 -1.4176
 1022WAT      O19064   0.206   2.073   0.878 -0.0682  0.4984  0.4105
 1022WAT     H119065   0.174   2.069   0.968  0.0242 -0.4052  0.4084
 1022WAT     H219066   0.297   2.044   0.883 -0.6116 -1.4694 -0.2260
 1023WAT      O19067   2.933   5.466   1.355  0.1989  0.1127 -0.5875
 1023WAT     H119068   2.854   5.439   1.308 -1.1911  1.2417  0.9846
 1023WAT     H219069   2.980   5.521   1.293 -1.0605  0.7087 -1.0502
 1024WAT      O19070   2.712   5.597   6.917 -0.2975  0.2128  0.3630
 1024WAT     H119071   2.800   5.560   6.911 -0.6946 -0.7928  0.4582
 1024WAT     H219072   2.679   5.594   6.827 -0.4019  0.1457  0.4024
 1025WAT      O19073   5.745   4.691   0.668 -0.3533 -0.0884  0.3449
 1025WAT     H119074   5.692   4.623   0.710  0.7072 -1.7835 -0.9679
 1025WAT     H219075   5.821   4.701   0.726 -1.7768  2.1011  2.0440
 1026WAT      O19076   5.568   5.474   0.122  0.8865  0.4045 -0.0287
 1026WAT     H119077   5.495   5.454   0.180  0.8659 -0.8626 -0.4532
 1026WAT     H219078   5.622   5.537   0.171 -1.0557  2.2888 -0.1811
 1027WAT      O19079   6.079   5.711   7.299 -0.1717  0.2407  0.4522
 1027WAT     H119080   6.090   5.793   7.347 -1.0623  0.7261 -0.1469
 1027WAT     H219081   6.150   5.655   7.331  1.1945  1.6437 -0.0006
 1028WAT      O19082   0.235   0.206   1.832 -0.1592  0.5269  0.4739
 1028WAT     H119083   0.322   0.246   1.829  0.6531 -1.1848  0.3779
 1028WAT     H219084   0.176   0.280   1.848  1.4785  1.4901  2.6826
 1029WAT      O19085   5.487   5.492   0.727 -0.3056 -0.1262 -0.0041
 1029WAT     H119086   5.536   5.418   0.691  0.2394 -0.0808  0.6358
 1029WAT     H219087   5.436   5.525   0.653  1.5378  0.6008 -0.9882
 1030WAT      O19088   5.597   6.220   6.425 -0.3290  0.3538  1.0127
 1030WAT     H119089   5.531   6.177   6.370 -1.0532  2.2662  0.2911
 1030WAT     H219090   5.565   6.207   6.514  0.0350 -1.4434  0.9213
 1031WAT      O19091   5.186   1.490   7.087 -0.7089 -0.0939  0.9458
 1031WAT     H119092   5.202   1.479   6.993 -1.0120 -0.5761  0.9457
 1031WAT     H219093   5.232   1.417   7.128  1.9378  1.7496  1.4569
 1032WAT      O19094   2.198   5.267   0.277 -0.1576 -0.3353 -0.7775
 1032WAT     H119095   2.200   5.307   0.190 -0.0449 -1.4930 -1.3303
 1032WAT     H219096   2.284   5.287   0.314  0.8633 -2.0507 -2.0189
 1033WAT      O19097   1.806   0.121   1.194 -0.3462  0.4521 -0.4865
 1033WAT     H119098   1.894   0.085   1.209 -0.6454 -0.4132 -0.7383
 1033WAT     H219099   1.783   0.092   1.106 -0.6476  1.1916 -0.6592
 1034WAT      O19100   1.448   5.797   1.087 -0.3715 -0.3765  0.6537
 1034WAT     H119101   1.478   5.714   1.050  0.7535 -0.0743  0.8541
 1034WAT     H219102   1.380   5.827   1.027  2.7109  1.0793 -2.4141
 1035WAT      O19103   0.398   5.078   7.868  0.0910 -0.0520  0.1528
 1035WAT     H119104   0.389   5.147   7.933 -1.5458 -0.7000  0.6652
 1035WAT     H219105   0.353   5.111   7.790  0.9329  0.1929 -0.2497
 1036WAT      O19106   4.247   5.012   6.391 -0.5119  0.0120  0.4572
 1036WAT     H119107   4.281   5.092   6.430  1.3715 -0.9574  0.9501
 1036WAT     H219108   4.298   5.002   6.310 -1.3577 -0.2445 -0.0595
 1037WAT      O19109   3.103   0.013   6.167  0.4266  0.0210 -0.0680
 1037WAT     H119110   3.189   0.044   6.140 -0.3253  1.2347 -1.1431
 1037WAT     H219111   3.096  -0.075   6.129 -0.0097  1.1025 -2.6723
 1038WAT      O19112   1.100   1.107   5.979 -0.2468  0.4352  0.5264
 1038WAT     H119113   1.174   1.157   6.014 -0.5527  0.9412  0.4442
 1038WAT     H219114   1.139   1.022   5.955  0.5676  1.1053 -0.6440
 1039WAT      O19115   5.777   3.227   0.079 -0.1392  0.1787  0.3645
 1039WAT     H119116   5.783   3.253  -0.013  0.1637 -1.1468 -0.0150
 1039WAT     H219117   5.798   3.307   0.128  0.6132  0.6720 -0.7225
 1040WAT      O19118   2.439   1.797   6.756 -0.2473 -0.4337 -0.0326
 1040WAT     H119119   2.391   1.796   6.673 -1.2216  0.7583  0.4995
 1040WAT     H219120   2.421   1.711   6.795 -1.3931 -0.2673 -0.1588
 1041WAT      O19121   4.343   6.031   0.889  0.0177 -0.3500 -0.1841
 1041WAT     H119122   4.402   6.104   0.869  1.4949 -1.2137  0.8167
 1041WAT     H219123   4.255   6.067   0.878  0.6947  1.6585  0.5679
 1042WAT      O19124   1.407   1.269   6.294 -0.0189  0.2035 -0.1459
 1042WAT     H119125   1.387   1.264   6.201 -1.3423 -0.1767  0.1399
 1042WAT     H219126   1.339   1.326   6.330 -1.4919 -2.1529  1.0707
 1043WAT      O19127   1.120   1.543   0.194  0.0619  0.0459 -0.1327
 1043WAT     H119128   1.037   1.588   0.179  0.5541  0.3028 -2.6855
 1043WAT     H219129   1.157   1.585   0.272 -1.2958  1.3188 -0.1321
 1044WAT      O19130   3.452   5.209   7.381 -0.1275  0.0550 -0.0319
 1044WAT     H119131   3.382   5.202   7.315  0.7312  0.6299 -1.0411
 1044WAT     H219132   3.529   5.173   7.338  0.4481  0.4332  0.6695
 1045WAT      O19133   6.034   3.739   2.230  0.1422 -0.0197 -0.5646
 1045WAT     H119134   6.065   3.675   2.165  0.0207 -0.0250 -0.6192
 1045WAT     H219135   6.058   3.701   2.314  1.1586  0.4366 -0.6313
 1046WAT      O19136   3.148   1.197   6.852 -0.1415 -0.6996  0.2896
 1046WAT     H119137   3.231   1.217   6.894 -0.6904  0.4429  0.8802
 1046WAT     H219138   3.164   1.211   6.758  0.3103 -0.4149  0.4059
 1047WAT      O19139   3.480   2.566   1.022 -0.7378  0.4081 -0.0979
 1047WAT     H119140   3.508   2.658   1.021  0.7408  0.0320  1.4713
 1047WAT     H219141   3.445   2.551   0.935  0.3961  2.0449 -0.9006
 1048WAT      O19142   4.072   1.948   5.867 -0.0780 -0.3570  0.0049
 1048WAT     H119143   4.110   1.861   5.850  0.3824 -0.3014  0.7369
 1048WAT     H219144   4.015   1.935   5.942 -2.0305 -0.5671 -1.4279
 1049WAT      O19145   1.060   1.147   6.434  0.0372  0.1711 -0.3837
 1049WAT     H119146   1.114   1.225   6.421 -0.5919  0.4818 -1.2285
 1049WAT     H219147   1.123   1.075   6.442  0.7729  1.0189  2.9786
 1050WAT      O19148   4.893   3.044   2.099  0.1798 -0.3624  1.0025
 1050WAT     H119149   4.947   2.990   2.040 -0.3621  1.2502 -1.0791
 1050WAT     H219150   4.832   2.982   2.139  0.4276 -1.5175 -0.3198
 1051WAT      O19151   2.720   2.436   6.409 -0.2531 -0.5426 -0.1953
 1051WAT     H119152   2.740   2.451   6.502  0.6315 -1.1506 -0.2743
 1051WAT     H219153   2.649   2.372   6.410 -0.9005  0.1830  0.0774
 1052WAT      O19154   5.137   2.385   1.486  0.0442  0.1888 -0.1537
 1052WAT     H119155   5.049   2.353   1.502  1.2818 -2.8807  1.4841
 1052WAT     H219156   5.172   2.326   1.419  1.8443 -0.8604  1.6065
 1053WAT      O19157   2.284   5.917   1.901  0.2663  0.4224 -0.4099
 1053WAT     H119158   2.259   5.863   1.976 -1.2052  1.9730  0.2923
 1053WAT     H219159   2.351   5.976   1.936 -0.1631  0.9080 -0.3893
 1054WAT      O19160   2.292   2.662   0.089  0.8311  0.7528 -0.2718
 1054WAT     H119161   2.219   2.721   0.069 -1.1897 -1.4682  0.1523
 1054WAT     H219162   2.265   2.617   0.169  3.5046  1.0666  0.9120
 1055WAT      O19163   5.864   2.667   6.167 -0.2072  0.2519  0.3014
 1055WAT     H119164   5.887   2.645   6.258 -0.8720 -0.6885  0.2549
 1055WAT     H219165   5.849   2.583   6.125 -0.5376  0.7097 -0.5202
 1056WAT      O19166   5.626   2.630   7.420  0.5052 -0.0263  0.1848
 1056WAT     H119167   5.590   2.703   7.469  1.4073  0.4891  0.0937
 1056WAT     H219168   5.720   2.632   7.438  0.5964 -0.9492 -0.0982
 1057WAT      O19169   3.685   3.614   4.813 -0.4140 -0.3778 -0.4635
 1057WAT     H119170   3.767   3.663   4.804 -0.7570  0.4598  0.7083
 1057WAT     H219171   3.705   3.547   4.878 -0.5645 -0.3605 -0.4006
 1058WAT      O19172   0.971   4.463   0.189  0.1614  0.3294 -0.3808
 1058WAT     H119173   0.936   4.524   0.254 -0.6553 -0.3851 -0.1221
 1058WAT     H219174   0.937   4.378   0.216 -2.3610  0.2728 -3.1062
 1059WAT      O19175   2.654   5.726   1.379 -0.2256  0.6752 -0.1293
 1059WAT     H119176   2.703   5.806   1.359 -1.8215  1.9176  0.7384
 1059WAT     H219177   2.601   5.711   1.301 -0.0877  0.5902 -0.2068
 1060WAT      O19178   4.868   5.612   0.147  0.0290 -0.5978  0.3179
 1060WAT     H119179   4.825   5.599   0.232 -0.9847  0.9712  0.0922
 1060WAT     H219180   4.857   5.705   0.128  2.1386 -0.4708 -0.5552
 1061WAT      O19181   0.803   2.206   0.381 -0.1742  0.4958 -0.0988
 1061WAT     H119182   0.853   2.273   0.427 -0.2130 -0.4904  1.4594
 1061WAT     H219183   0.722   2.250   0.355 -0.0802  1.1171  0.6321
 1062WAT      O19184   3.995   1.655   6.678  0.8258 -0.5503  0.0909
 1062WAT     H119185   4.040   1.725   6.726 -1.1979  1.0292 -0.1487
 1062WAT     H219186   3.962   1.698   6.599  1.3152 -2.3322 -1.1392
 1063WAT      O19187   4.210   1.349   5.973 -0.3894  0.3593  0.2601
 1063WAT     H119188   4.191   1.345   5.880  0.4774 -1.3454  0.1082
 1063WAT     H219189   4.125   1.346   6.016 -0.7328 -0.8582 -0.4615
 1064WAT      O19190   5.362   0.225   0.009  0.5456 -0.0523  0.1354
 1064WAT     H119191   5.385   0.140  -0.029 -1.2107 -0.4663 -0.1212
 1064WAT     H219192   5.305   0.203   0.083  1.3168  0.8704  1.0300
 1065WAT      O19193   6.124   4.066   1.489  0.6502 -0.3207  0.2844
 1065WAT     H119194   6.044   4.107   1.521  1.1318  0.4217  0.5664
 1065WAT     H219195   6.194   4.127   1.514  1.2095 -0.5164 -0.7425
 1066WAT      O19196   2.972   4.213   0.710  0.1594 -0.4366  0.2388
 1066WAT     H119197   2.908   4.281   0.732  0.5633  0.0002  0.0896
 1066WAT     H219198   2.949   4.188   0.620 -0.2516 -0.8025  0.4412
 1067WAT      O19199   3.070   3.052   6.816 -0.6598 -0.4536  0.4647
 1067WAT     H119200   3.042   3.133   6.774 -0.9587 -0.6222  0.3354
 1067WAT     H219201   3.130   3.080   6.885 -1.0566 -0.0987  0.6684
 1068WAT      O19202   3.534   4.672   2.269  0.1885 -0.0234  0.7743
 1068WAT     H119203   3.540   4.587   2.225 -0.3829  0.3754 -0.1030
 1068WAT     H219204   3.460   4.663   2.328 -1.1073  0.4483 -0.7131
 1069WAT      O19205   2.251   1.007   0.933 -0.0962  0.4961  0.2790
 1069WAT     H119206   2.208   0.922   0.945  0.3046 -0.0701 -1.9602
 1069WAT     H219207   2.226   1.034   0.845  2.4927  1.1004 -0.3301
 1070WAT      O19208   4.899   4.570   1.111 -0.0017 -0.3849  1.0737
 1070WAT     H119209   4.946   4.558   1.029  0.2047  1.7660  0.8116
 1070WAT     H219210   4.967   4.571   1.178  0.4100  2.4238  0.7260
 1071WAT      O19211   1.150   4.299   6.841 -0.0363 -0.1650 -0.4112
 1071WAT     H119212   1.187   4.231   6.785  1.5001  0.4185 -0.1619
 1071WAT     H219213   1.156   4.379   6.788 -0.1227  0.1025 -0.0233
 1072WAT      O19214   5.444   5.892   1.206 -0.0335 -0.0104 -0.0381
 1072WAT     H119215   5.442   5.901   1.302 -1.2968  1.5509 -0.1746
 1072WAT     H219216   5.491   5.810   1.191  1.3869  0.3858  1.8650
 1073WAT      O19217   0.753   3.738   6.576  0.0381  0.4255  0.8923
 1073WAT     H119218   0.812   3.778   6.640  0.1496  0.8866  0.5070
 1073WAT     H219219   0.669   3.731   6.621  0.8107 -2.0229  2.1331
 1074WAT      O19220   0.807   6.206   7.579 -0.1499  0.0356  0.2771
 1074WAT     H119221   0.884   6.186   7.631  0.1807  0.6214  0.0265
 1074WAT     H219222   0.756   6.125   7.579  1.2237 -0.8834 -0.8785
 1075WAT      O19223   2.074   5.897   2.532 -0.3251 -0.3263  0.4559
 1075WAT     H119224   1.988   5.860   2.554 -0.1446 -1.0481 -0.0396
 1075WAT     H219225   2.129   5.821   2.512 -0.2520  0.2576 -1.7343
 1076WAT      O19226   2.059   5.035   5.937  0.0456 -0.1670  0.1769
 1076WAT     H119227   2.083   5.095   5.867 -0.8819  0.0900  0.0599
 1076WAT     H219228   2.077   5.084   6.018  0.3614 -0.1651  0.1078
 1077WAT      O19229   0.191   3.930   1.468  0.3948 -0.3154 -0.6114
 1077WAT     H119230   0.112   3.982   1.478  0.2822 -0.3338 -1.3227
 1077WAT     H219231   0.253   3.968   1.529  0.2004  0.4274 -0.8639
 1078WAT      O19232   0.879   1.075   0.946 -0.2583  0.3350 -0.2296
 1078WAT     H119233   0.946   1.009   0.964 -0.1010  0.9125  1.4221
 1078WAT     H219234   0.927   1.148   0.907 -0.4222 -0.4521 -1.9926
 1079WAT      O19235   2.533   1.805   7.703  0.6312 -0.1532 -0.1130
 1079WAT     H119236   2.504   1.780   7.615 -0.2309 -0.9990  0.3991
 1079WAT     H219237   2.479   1.880   7.726  1.7180  0.8709 -0.7800
 1080WAT      O19238   5.703   1.309   5.502 -0.0875  0.5148 -0.5327
 1080WAT     H119239   5.678   1.394   5.537  0.4172  0.5075 -0.1481
 1080WAT     H219240   5.794   1.297   5.530 -0.0244  0.0347 -0.9333
 1081WAT      O19241   5.650   0.242   7.061 -0.8758  0.0500 -0.1602
 1081WAT     H119242   5.689   0.256   7.148  0.4295 -0.0369 -0.7032
 1081WAT     H219243   5.598   0.321   7.046  0.2030  0.8287  0.0444
 1082WAT      O19244   1.601   1.747   6.372  0.0650  0.1016  0.2148
 1082WAT     H119245   1.679   1.759   6.426 -0.5148 -2.4845  1.7779
 1082WAT     H219246   1.620   1.669   6.320 -0.9647  0.2329 -0.3837
 1083WAT      O19247   5.095   6.104   6.184  0.1932  0.2240  0.5585
 1083WAT     H119248   5.160   6.048   6.141 -0.7733  0.2260 -0.9702
 1083WAT     H219249   5.054   6.153   6.113  0.0907  1.9126  1.7386
 1084WAT      O19250   5.895   5.968   7.542  0.0010 -0.3257  0.8963
 1084WAT     H119251   5.935   6.053   7.563  0.7732 -0.5648  0.4309
 1084WAT     H219252   5.909   5.958   7.448 -1.0685 -0.4724  0.7421
 1085WAT      O19253   3.698   2.068   6.536  0.2497 -0.0440  0.0785
 1085WAT     H119254   3.752   1.994   6.562  2.1486  1.8634  1.9279
 1085WAT     H219255   3.650   2.092   6.616 -1.1793  0.1048 -0.7793
 1086WAT      O19256   0.641   2.667   6.642  0.1381 -0.8559 -0.5933
 1086WAT     H119257   0.725   2.688   6.599  0.7342  0.1316  0.9681
 1086WAT     H219258   0.630   2.736   6.708 -2.7968  0.0956 -1.8982
 1087WAT      O19259   2.126   1.885   6.528 -0.4661 -0.3336  0.1326
 1087WAT     H119260   2.123   1.980   6.536  0.3075 -0.1535 -1.3364
 1087WAT     H219261   2.193   1.869   6.461 -0.3227 -1.9285  0.6246
 1088WAT      O19262   4.977   2.328   0.657 -0.2605  0.4276  0.6580
 1088WAT     H119263   4.950   2.238   0.640  0.3643  0.1386  1.1714
 1088WAT     H219264   5.071   2.329   0.638  0.2210  0.3886  2.8283
 1089WAT      O19265   5.333   0.838   2.187 -0.3240 -0.2669  0.2346
 1089WAT     H119266   5.379   0.865   2.267 -1.7475 -0.9487  1.3259
 1089WAT     H219267   5.275   0.911   2.167  1.0083  0.5012 -1.0196
 1090WAT      O19268   1.813   5.146   0.825  0.0090  0.3845  0.0639
 1090WAT     H119269   1.891   5.195   0.800  0.2424  0.6257  1.1785
 1090WAT     H219270   1.818   5.064   0.777  1.4108  0.0315  0.7954
 1091WAT      O19271   5.202   3.698   6.864  0.5940 -0.7852 -0.6976
 1091WAT     H119272   5.217   3.633   6.933  1.4690 -1.0581 -1.1272
 1091WAT     H219273   5.267   3.676   6.796  1.9783  1.4553 -0.1952
 1092WAT      O19274   4.691   3.359   7.907 -0.1857  0.1714  0.3251
 1092WAT     H119275   4.777   3.371   7.945 -0.1917 -0.6664  0.6003
 1092WAT     H219276   4.697   3.278   7.856 -0.8332  0.0580  0.4144
 1093WAT      O19277   0.085   3.587   1.699 -0.3671  0.0038  0.3042
 1093WAT     H119278   0.179   3.571   1.703  0.1895  2.5488 -0.8216
 1093WAT     H219279   0.072   3.634   1.616 -2.7243 -0.7664  0.1554
 1094WAT      O19280   1.063   0.035   6.907 -0.1457  0.1604 -0.0033
 1094WAT     H119281   1.034   0.022   6.997 -0.5652  0.9870 -0.0095
 1094WAT     H219282   1.067   0.130   6.897 -1.4786  0.1142 -1.2778
 1095WAT      O19283   2.061   5.522   0.080 -0.3291 -0.0164  0.0256
 1095WAT     H119284   2.151   5.494   0.060 -0.5071 -1.4169  1.0634
 1095WAT     H219285   2.048   5.599   0.024  0.8810 -0.8510 -1.5182
 1096WAT      O19286   3.097   3.552   1.785  0.0115 -0.0210 -0.2480
 1096WAT     H119287   3.175   3.534   1.838  0.0750 -0.3933 -0.4617
 1096WAT     H219288   3.109   3.499   1.706 -0.1244  0.4675 -0.5973
 1097WAT      O19289   5.572   2.748   6.911  0.5660  1.0958  0.5978
 1097WAT     H119290   5.547   2.662   6.877  0.1346  0.8943  1.4055
 1097WAT     H219291   5.498   2.775   6.966  0.4708  2.2124 -0.0366
 1098WAT      O19292   3.450   4.010   0.112  0.1657 -0.0324  0.8029
 1098WAT     H119293   3.485   3.991   0.199 -1.0848 -0.5331  1.2194
 1098WAT     H219294   3.363   3.970   0.112  0.4352 -0.6787 -0.9479
 1099WAT      O19295   3.560   6.230   0.655  0.0502 -0.0232  0.4921
 1099WAT     H119296   3.563   6.136   0.674  0.8170  0.0126  0.5805
 1099WAT     H219297   3.648   6.251   0.624 -0.2163  0.6030  0.1423
 1100WAT      O19298   0.032   3.634   7.479 -0.1005  0.1980 -0.5006
 1100WAT     H119299   0.029   3.691   7.402 -1.8652  1.0707  0.1553
 1100WAT     H219300   0.088   3.561   7.453  0.9128  1.4213 -1.9259
 1101WAT      O19301   1.705   2.515   7.616 -0.1032 -0.5618  0.3955
 1101WAT     H119302   1.729   2.559   7.698  0.8571 -0.1616 -0.0800
 1101WAT     H219303   1.714   2.421   7.635  1.2967 -0.4415  0.4237
 1102WAT      O19304   1.410   2.744   5.974 -0.5201 -0.6279 -0.1338
 1102WAT     H119305   1.377   2.775   5.890 -1.7945 -2.1974 -0.2517
 1102WAT     H219306   1.439   2.654   5.958  2.6439  0.1662  0.3049
 1103WAT      O19307   5.930   5.266   1.863  0.5057 -0.0679 -0.7671
 1103WAT     H119308   5.911   5.343   1.808 -0.7317 -1.4656 -2.4198
 1103WAT     H219309   5.933   5.193   1.801  0.6240 -1.5049  0.8681
 1104WAT      O19310   2.275   4.436   7.193 -0.6024 -0.4431  0.0248
 1104WAT     H119311   2.315   4.393   7.269 -1.8051 -0.0278  0.9275
 1104WAT     H219312   2.300   4.528   7.201 -0.5485 -0.4368 -0.2139
 1105WAT      O19313   6.028   3.515   1.674 -0.1824 -0.0834 -0.0054
 1105WAT     H119314   6.118   3.521   1.706 -0.6566 -1.4190  1.6897
 1105WAT     H219315   5.980   3.473   1.745 -2.4871  1.9473 -0.2496
 1106WAT      O19316   3.163   3.238   1.856 -0.1993  0.5906 -0.5831
 1106WAT     H119317   3.208   3.322   1.845  0.2764  0.7555  1.9488
 1106WAT     H219318   3.154   3.228   1.951 -0.3480 -2.1669 -0.7982
 1107WAT      O19319   2.956   1.077   0.761 -0.9073 -0.1513 -0.0441
 1107WAT     H119320   2.966   1.152   0.819  0.2958 -0.3617  0.0438
 1107WAT     H219321   2.888   1.103   0.700 -0.4864  1.0363 -0.0345
 1108WAT      O19322   1.528   4.448   7.514 -0.0857 -0.0286  0.3575
 1108WAT     H119323   1.591   4.452   7.442 -0.6566  0.0572 -0.1449
 1108WAT     H219324   1.442   4.449   7.471 -0.4238 -1.3369  0.9637
 1109WAT      O19325   2.877   4.105   1.405 -0.3493  0.0046  0.2677
 1109WAT     H119326   2.955   4.121   1.457  0.2035 -1.0393 -0.2242
 1109WAT     H219327   2.822   4.050   1.460 -0.3489 -0.0049  0.2592
 1110WAT      O19328   0.377   2.374   7.631  0.4040  0.2399 -0.3144
 1110WAT     H119329   0.403   2.466   7.640  2.0509 -0.2628  0.4644
 1110WAT     H219330   0.459   2.325   7.635 -0.5660 -1.4002  1.2113
 1111WAT      O19331   2.429   0.072   6.044 -0.2572  0.8268  0.1325
 1111WAT     H119332   2.510   0.037   6.083 -1.7007 -0.2344  2.4018
 1111WAT     H219333   2.372  -0.004   6.037 -1.1041  1.5732 -1.4134
 1112WAT      O19334   5.054   5.715   0.357  0.6050  0.0158 -0.1926
 1112WAT     H119335   4.988   5.685   0.295  1.4590 -1.7170 -0.3191
 1112WAT     H219336   5.044   5.810   0.359 -0.3020 -0.0106 -1.9899
 1113WAT      O19337   5.352   1.030   7.755  0.0525 -0.1191  0.6025
 1113WAT     H119338   5.293   0.958   7.733 -0.9945  1.2496 -1.4240
 1113WAT     H219339   5.297   1.094   7.799  0.8817 -0.3339  2.0176
 1114WAT      O19340   0.960   5.372   5.720 -0.1897  0.2704 -0.9115
 1114WAT     H119341   1.053   5.355   5.702  0.3755 -0.3701  2.1875
 1114WAT     H219342   0.960   5.418   5.804 -2.6730  1.0903 -1.2895
 1115WAT      O19343   3.826   0.260   7.458 -0.0887 -0.0883 -0.4947
 1115WAT     H119344   3.835   0.164   7.457  1.9263  0.0491 -1.0279
 1115WAT     H219345   3.871   0.288   7.379  0.6707  1.3872  0.4247
 1116WAT      O19346   0.223   2.091   1.140  0.6807 -0.6898  0.1799
 1116WAT     H119347   0.303   2.140   1.162  1.1426 -0.8826 -0.9909
 1116WAT     H219348   0.156   2.127   1.198  1.7073 -0.8066  1.4784
 1117WAT      O19349   4.088   2.095   1.511 -0.1217  0.0745 -0.1059
 1117WAT     H119350   4.183   2.086   1.497 -0.4295 -1.7201 -1.2530
 1117WAT     H219351   4.062   2.012   1.550 -1.2011  0.6940  0.5290
 1118WAT      O19352   5.403   1.994   6.707  0.3010 -0.3651  0.3992
 1118WAT     H119353   5.416   2.067   6.646 -0.0017 -0.0210  0.7391
 1118WAT     H219354   5.468   2.008   6.775  0.6625 -0.7705  0.1435
 1119WAT      O19355   1.905   3.945   7.820 -0.0487  0.5069 -0.5987
 1119WAT     H119356   1.975   3.905   7.873 -1.9930 -0.8370  1.1142
 1119WAT     H219357   1.915   3.905   7.734 -0.1599 -1.6054  0.2961
 1120WAT      O19358   1.287   4.859   7.242  0.4712  0.2530  0.0240
 1120WAT     H119359   1.328   4.779   7.209  0.1762  0.6631 -1.4220
 1120WAT     H219360   1.250   4.901   7.164 -0.9467  0.8968  1.0009
 1121WAT      O19361   5.331   2.212   1.715  0.0886 -0.1796 -0.2857
 1121WAT     H119362   5.264   2.149   1.740 -0.2180  0.0062 -0.6374
 1121WAT     H219363   5.401   2.200   1.780  0.0134 -0.8474 -0.3242
 1122WAT      O19364   3.710   4.658   6.791  0.4983  0.1764  0.0790
 1122WAT     H119365   3.742   4.572   6.763 -0.4473 -0.7452  1.7146
 1122WAT     H219366   3.750   4.671   6.877 -1.7156 -0.0413  1.2040
 1123WAT      O19367   4.477   4.591   1.703  0.1185 -0.3507 -0.0418
 1123WAT     H119368   4.480   4.505   1.746 -0.0305 -0.8930 -1.0794
 1123WAT     H219369   4.389   4.623   1.719 -0.5563 -1.3747 -1.4390
 1124WAT      O19370   1.964   5.230   7.165 -0.0164 -0.3884  0.2439
 1124WAT     H119371   1.906   5.173   7.216  0.0007 -0.9007 -0.3044
 1124WAT     H219372   1.905   5.277   7.106  0.1148 -0.8769 -0.2833
 1125WAT      O19373   3.066   5.248   0.264  0.0861 -0.3847 -0.1626
 1125WAT     H119374   3.041   5.178   0.204 -0.4117 -0.4870  0.1632
 1125WAT     H219375   3.047   5.214   0.351  2.0248 -0.7490  0.1617
 1126WAT      O19376   5.333   4.489   7.478 -0.1096  0.2675  0.0698
 1126WAT     H119377   5.415   4.533   7.454 -0.6450  1.3674  0.2128
 1126WAT     H219378   5.337   4.405   7.431  0.4926  0.8626 -0.9957
 1127WAT      O19379   1.018   1.324   6.834  0.0774  0.0222  0.3148
 1127WAT     H119380   0.947   1.290   6.889 -0.8728  1.2031 -0.1327
 1127WAT     H219381   0.975   1.355   6.755  1.3239 -0.8438 -0.7438
 1128WAT      O19382   2.233   1.463   6.671 -0.0804 -0.4873  0.0784
 1128WAT     H119383   2.272   1.523   6.608 -1.0755  0.1654  0.0633
 1128WAT     H219384   2.285   1.382   6.663  0.4218 -0.0846 -0.8600
 1129WAT      O19385   4.352   4.733   0.306 -0.3727  0.2101  0.2813
 1129WAT     H119386   4.308   4.700   0.384  0.6266  0.1360  0.8374
 1129WAT     H219387   4.352   4.828   0.316 -2.6953  0.4244 -1.0149
 1130WAT      O19388   2.064   5.603   0.820 -0.6923 -0.4325  0.1044
 1130WAT     H119389   1.987   5.546   0.814 -0.9792  0.0205 -0.6614
 1130WAT     H219390   2.038   5.683   0.775  0.5562 -0.6346 -1.0482
 1131WAT      O19391   0.004   2.429   6.546  0.5905  0.0423  0.0910
 1131WAT     H119392  -0.079   2.405   6.588  0.7822  0.8287  0.9353
 1131WAT     H219393   0.056   2.349   6.549  0.0499 -0.3251 -0.0099
 1132WAT      O19394   2.508   0.986   6.677 -0.2296 -0.8501  0.3178
 1132WAT     H119395   2.452   0.944   6.742  0.5983 -1.3532  0.7236
 1132WAT     H219396   2.596   0.982   6.714 -0.0213  0.7276  0.1027
 1133WAT      O19397   5.439   4.568   6.110  0.3239  0.6387  0.2194
 1133WAT     H119398   5.476   4.499   6.055  0.6539  0.2950  0.8622
 1133WAT     H219399   5.451   4.536   6.199  0.2117  1.3954  0.5095
 1134WAT      O19400   3.660   4.738   7.557  0.2732 -0.1863 -0.0551
 1134WAT     H119401   3.638   4.771   7.644 -1.9572  0.2292 -0.7215
 1134WAT     H219402   3.669   4.644   7.569  0.7306 -0.0567  0.7374
 1135WAT      O19403   3.618   2.198   6.779  0.1904 -0.1149 -0.1804
 1135WAT     H119404   3.657   2.195   6.866 -0.2520 -0.8204 -0.0014
 1135WAT     H219405   3.524   2.206   6.796  0.1910  1.0182 -0.6040
 1136WAT      O19406   4.157   1.788   0.923  0.0468 -0.5324  0.3435
 1136WAT     H119407   4.181   1.700   0.952  1.2964 -0.6946 -1.0391
 1136WAT     H219408   4.240   1.836   0.919 -0.6321  0.7887  1.2480
 1137WAT      O19409   6.093   1.548   7.228 -0.4783 -0.0490  1.0538
 1137WAT     H119410   6.050   1.527   7.145  0.2444  2.9322 -0.2041
 1137WAT     H219411   6.038   1.616   7.267  0.8757  0.8953  1.4005
 1138WAT      O19412   0.001   0.041   7.177 -0.3726 -0.3665  0.2107
 1138WAT     H119413   0.001   0.083   7.091 -2.4603 -0.1249  0.2606
 1138WAT     H219414   0.091   0.013   7.191 -0.2961 -2.0753 -2.8716
 1139WAT      O19415   4.581   2.252   6.864 -0.1500  0.5906 -0.2586
 1139WAT     H119416   4.604   2.345   6.867  1.0979  0.2677  1.4098
 1139WAT     H219417   4.541   2.234   6.949  1.6049 -0.8518  0.3101
 1140WAT      O19418   4.463   2.147   1.678 -0.3137 -0.5051  0.4873
 1140WAT     H119419   4.417   2.146   1.594  1.3577  0.3611 -0.4659
 1140WAT     H219420   4.415   2.083   1.731 -1.0007 -1.5715 -1.3156
 1141WAT      O19421   0.114   0.942   6.678 -0.3603  0.7286  0.2157
 1141WAT     H119422   0.094   0.993   6.600 -0.0325  2.2903  1.1112
 1141WAT     H219423   0.102   0.851   6.651  0.0133  1.2127 -1.7165
 1142WAT      O19424   3.963   1.319   6.699  0.1805 -0.3673  0.2090
 1142WAT     H119425   3.970   1.414   6.685 -2.6832 -0.1742 -0.5064
 1142WAT     H219426   3.963   1.309   6.794  0.5320  0.3298  0.2958
 1143WAT      O19427   3.353   3.650   6.532 -0.3574  0.7948 -0.2211
 1143WAT     H119428   3.437   3.640   6.576 -0.8253 -0.2578  0.4713
 1143WAT     H219429   3.366   3.724   6.473  1.4912 -0.2566 -1.2111
 1144WAT      O19430   0.979   5.920   0.405 -0.2937  0.0012  0.1304
 1144WAT     H119431   1.006   5.880   0.487 -1.0492 -0.3910  0.1974
 1144WAT     H219432   0.970   5.847   0.344  0.9616  0.3561 -0.5182
 1145WAT      O19433   3.875   5.114   5.792  0.2024  0.0484  0.4547
 1145WAT     H119434   3.782   5.137   5.798  0.8505  3.8007 -0.8077
 1145WAT     H219435   3.900   5.141   5.703  2.4984 -0.9810  0.7187
 1146WAT      O19436   0.057   5.121   1.688  0.1973  0.3235 -0.1665
 1146WAT     H119437   0.063   5.174   1.608 -0.1291  1.0158  0.2541
 1146WAT     H219438  -0.034   5.092   1.692 -0.2790  1.8098  0.8706
 1147WAT      O19439   0.296   5.331   6.232 -0.1864 -0.5410  0.2106
 1147WAT     H119440   0.338   5.403   6.279  0.1248 -0.2421 -0.5170
 1147WAT     H219441   0.203   5.338   6.255 -0.6748  1.8237 -2.0039
 1148WAT      O19442   4.946   5.123   6.508  0.4276  0.2521 -0.1012
 1148WAT     H119443   4.976   5.039   6.541  0.6893  0.2906 -0.2433
 1148WAT     H219444   4.876   5.101   6.446  2.0908 -0.0095 -1.9707
 1149WAT      O19445   3.047   0.651   1.191 -0.1539 -0.2342 -0.1864
 1149WAT     H119446   2.976   0.715   1.191  0.0234 -0.0336 -0.7473
 1149WAT     H219447   3.100   0.673   1.268 -0.7480 -0.4472  0.2936
 1150WAT      O19448   1.546   3.550   6.219  0.1169 -0.9266  0.1785
 1150WAT     H119449   1.607   3.621   6.199  0.1694 -1.2190 -0.7296
 1150WAT     H219450   1.459   3.590   6.211  0.1486 -0.9391 -0.2276
 1151WAT      O19451   1.492   3.372   1.474  0.0774 -0.3344  0.0737
 1151WAT     H119452   1.584   3.355   1.458  0.1346  0.2591 -0.2444
 1151WAT     H219453   1.491   3.451   1.527 -0.2975  0.6785 -1.3846
 1152WAT      O19454   3.253   0.483   0.116 -0.4311  0.2974 -0.2212
 1152WAT     H119455   3.267   0.420   0.187 -0.1264  0.4142 -0.1739
 1152WAT     H219456   3.206   0.433   0.050 -2.9667  0.8554  1.0582
 1153WAT      O19457   2.612   0.706   1.275  0.0619  0.7161  0.0392
 1153WAT     H119458   2.668   0.646   1.225 -0.4424  0.5386 -0.3231
 1153WAT     H219459   2.547   0.649   1.316 -0.1558  0.9747  0.0536
 1154WAT      O19460   1.839   1.768   0.889  0.4975  0.3078  0.0546
 1154WAT     H119461   1.782   1.786   0.964  0.1206  0.9919 -0.3920
 1154WAT     H219462   1.782   1.773   0.813  0.6833 -1.3162 -0.2387
 1155WAT      O19463   5.991   4.762   7.561  0.2385  0.1254  0.3760
 1155WAT     H119464   5.984   4.802   7.474 -1.5387  1.6298  1.1344
 1155WAT     H219465   6.041   4.824   7.613  3.9213 -2.0849 -0.1731
 1156WAT      O19466   0.496   6.231   6.625 -0.1635  0.1723  0.3410
 1156WAT     H119467   0.481   6.178   6.547 -0.1748 -0.0466  0.4920
 1156WAT     H219468   0.535   6.171   6.688 -0.6845  0.2115  0.7035
 1157WAT      O19469   3.998   3.335   0.354  0.4006  0.3086  0.0726
 1157WAT     H119470   4.016   3.427   0.373  0.1980  0.4211 -0.2807
 1157WAT     H219471   3.949   3.337   0.272  3.2665 -0.3139 -1.8094
 1158WAT      O19472   4.678   5.359   5.859 -0.1575  0.6543 -0.4466
 1158WAT     H119473   4.674   5.305   5.938  0.9924  0.2120 -0.6753
 1158WAT     H219474   4.621   5.433   5.879 -1.0894 -0.1939  0.2043
 1159WAT      O19475   1.142   3.176   0.457 -0.2887  0.3861  0.6896
 1159WAT     H119476   1.180   3.211   0.538 -0.2163  0.9377  0.4280
 1159WAT     H219477   1.212   3.184   0.392 -0.1664 -0.5680  0.6993
 1160WAT      O19478   3.493   5.038   1.412 -0.3194  0.1730 -0.3221
 1160WAT     H119479   3.455   4.957   1.378 -0.3286 -0.2233  0.6113
 1160WAT     H219480   3.421   5.102   1.406 -0.5697 -0.1006 -0.2813
 1161WAT      O19481   4.858   6.000   6.949 -0.3213 -0.1157  0.2079
 1161WAT     H119482   4.859   6.084   6.995  0.7251 -0.2090  0.3826
 1161WAT     H219483   4.931   6.005   6.888  0.2755 -1.2086  0.8079
 1162WAT      O19484   5.308   5.161   1.664  0.2928 -0.3231  0.1622
 1162WAT     H119485   5.391   5.173   1.619  0.5507  0.3579  0.8080
 1162WAT     H219486   5.332   5.133   1.752 -0.1824 -0.6330  0.2017
 1163WAT      O19487   2.711   3.789   6.716 -0.1160  0.3438  0.1341
 1163WAT     H119488   2.753   3.794   6.631 -0.1971  1.5034  0.1470
 1163WAT     H219489   2.781   3.762   6.776 -0.0265 -0.3245 -0.2594
 1164WAT      O19490   4.992   0.557   6.485  0.5259  0.5544 -0.5410
 1164WAT     H119491   5.031   0.534   6.569 -0.2843 -0.1291 -0.3381
 1164WAT     H219492   5.014   0.483   6.428 -1.7009 -0.6022 -0.0150
 1165WAT      O19493   4.926   5.170   7.300  0.1273  0.4702  0.3257
 1165WAT     H119494   5.014   5.161   7.262  0.1578 -0.6684  0.6352
 1165WAT     H219495   4.888   5.083   7.293 -0.0953  0.3721  2.3380
 1166WAT      O19496   3.309   2.878   0.951 -0.8325  0.4300  1.1332
 1166WAT     H119497   3.290   2.920   1.035  0.4688  2.2843  0.5574
 1166WAT     H219498   3.404   2.864   0.953 -1.0404 -1.3823  0.7509
 1167WAT      O19499   2.604   2.566   5.794  0.7439  0.1652  0.4939
 1167WAT     H119500   2.604   2.502   5.722 -2.3205 -0.0631  0.5775
 1167WAT     H219501   2.547   2.636   5.763 -0.6132  0.0796  2.6506
 1168WAT      O19502   2.306   1.818   7.052 -0.2339 -0.0824  0.4065
 1168WAT     H119503   2.325   1.828   6.958  0.7099 -0.1026  0.5831
 1168WAT     H219504   2.356   1.741   7.078 -0.1665  0.1645  1.0124
 1169WAT      O19505   3.707   1.842   6.728  0.4540  0.1002  0.2403
 1169WAT     H119506   3.708   1.750   6.703 -0.0112 -0.0633  0.8290
 1169WAT     H219507   3.740   1.844   6.818  0.2688  0.4859  0.3026
 1170WAT      O19508   0.244   0.464   1.986  0.1398  0.4999  0.5180
 1170WAT     H119509   0.177   0.532   1.983 -0.5478 -0.1194 -2.6220
 1170WAT     H219510   0.325   0.511   2.007 -0.8281  1.6952  1.7421
 1171WAT      O19511   0.203   0.368   7.163  0.1237  0.3478 -0.3991
 1171WAT     H119512   0.299   0.361   7.160  0.2453  0.3720  1.8421
 1171WAT     H219513   0.172   0.281   7.139  0.7555  0.0635 -0.2168
 1172WAT      O19514   3.058   0.384   6.622 -0.1957  0.3087  0.2050
 1172WAT     H119515   3.105   0.434   6.689 -0.9949  0.4594  0.6685
 1172WAT     H219516   2.978   0.354   6.665 -1.3164  1.4236 -0.9979
 1173WAT      O19517   5.922   2.939   6.801  0.1855 -0.0602 -0.0552
 1173WAT     H119518   5.900   3.010   6.861  0.5411  0.3514 -0.4020
 1173WAT     H219519   5.950   2.984   6.721 -0.9832 -0.5982 -0.7881
 1174WAT      O19520   2.382   5.031   1.078  0.7507 -0.2358  0.0254
 1174WAT     H119521   2.325   5.069   1.145  2.4212  0.8462  0.9157
 1174WAT     H219522   2.336   4.953   1.048 -1.6280  1.0884 -0.0039
 1175WAT      O19523   2.910   3.710   5.327  0.1413  0.7806  0.1142
 1175WAT     H119524   2.865   3.665   5.399  0.0313  1.2527  0.3420
 1175WAT     H219525   2.974   3.766   5.371  1.3132 -0.2448 -0.2122
 1176WAT      O19526   3.044   2.181   1.014  0.2670 -0.3209  0.2899
 1176WAT     H119527   3.037   2.094   0.975 -0.6938 -0.4325  0.6770
 1176WAT     H219528   3.015   2.169   1.105 -1.3244  0.6588 -0.0390
 1177WAT      O19529   1.797   1.030   7.630  0.4010  0.0009  0.6477
 1177WAT     H119530   1.789   1.125   7.632 -0.4305  0.0225 -1.2529
 1177WAT     H219531   1.759   1.004   7.546 -1.2535 -2.2125  1.9500
 1178WAT      O19532   5.189   4.808   6.400 -0.6144  0.0895  0.5502
 1178WAT     H119533   5.182   4.816   6.305 -1.0933  1.0214  0.6484
 1178WAT     H219534   5.282   4.813   6.418 -0.6204  1.8449  0.2591
 1179WAT      O19535   3.336   0.540   6.520  1.0447 -0.0658  0.2634
 1179WAT     H119536   3.268   0.563   6.584  0.5524  0.6184 -0.5002
 1179WAT     H219537   3.368   0.455   6.550 -0.1485 -0.4001  0.6257
 1180WAT      O19538   3.534   0.837   7.729 -0.3769 -0.7123  0.2617
 1180WAT     H119539   3.525   0.923   7.688 -2.0870 -0.0392  1.8684
 1180WAT     H219540   3.575   0.855   7.814 -1.6186 -1.3189  1.0201
 1181WAT      O19541   1.541   1.782   1.429 -0.7895 -0.0925  0.0385
 1181WAT     H119542   1.599   1.840   1.479 -1.1064  0.6796 -0.4698
 1181WAT     H219543   1.538   1.701   1.480  0.2773  0.0622  0.3689
 1182WAT      O19544   0.157   5.940   0.042 -0.1075  0.0426  0.6071
 1182WAT     H119545   0.082   5.998   0.028  1.6685  2.8386  1.7728
 1182WAT     H219546   0.152   5.916   0.134  0.6140  0.6129  0.8080
 1183WAT      O19547   5.317   2.870   1.421  0.4292 -0.3021 -1.0015
 1183WAT     H119548   5.307   2.950   1.472  0.5075  1.0337 -2.9826
 1183WAT     H219549   5.333   2.802   1.487 -0.9993  1.0343  0.8258
 1184WAT      O19550   3.541   5.781   6.071 -0.0746 -0.2656  1.0065
 1184WAT     H119551   3.529   5.723   6.147 -1.0035  1.5012  2.2879
 1184WAT     H219552   3.556   5.721   5.998  1.2779 -2.0616  2.6073
 1185WAT      O19553   4.845   4.751   2.082 -0.3029 -0.1858  0.4210
 1185WAT     H119554   4.906   4.697   2.132 -0.0098 -0.6629 -0.4345
 1185WAT     H219555   4.882   4.753   1.993 -1.8940 -1.1012 -0.3073
 1186WAT      O19556   2.561   0.553   1.526 -0.3627  0.6562 -0.1024
 1186WAT     H119557   2.558   0.486   1.594  0.3363 -0.9431 -1.5782
 1186WAT     H219558   2.494   0.527   1.463  1.4292  0.0144 -1.8224
 1187WAT      O19559   3.554   5.930   1.843  0.1848  0.4040 -0.8611
 1187WAT     H119560   3.560   5.842   1.805 -0.4029  0.0495 -0.1486
 1187WAT     H219561   3.644   5.950   1.870  0.0354 -0.7712  0.6971
 1188WAT      O19562   2.548   5.822   6.739 -0.3984  0.1130 -0.3624
 1188WAT     H119563   2.538   5.727   6.743  0.4576  0.0483  0.5281
 1188WAT     H219564   2.496   5.855   6.811 -3.7423  0.6494 -2.7706
 1189WAT      O19565   2.100   1.317   1.378  0.3232  0.0708  0.2645
 1189WAT     H119566   2.082   1.289   1.288  0.3330  0.4098  0.1543
 1189WAT     H219567   2.015   1.310   1.422  0.1939  0.4237  0.0832
 1190WAT      O19568   3.667   2.400   0.560 -0.4622  0.3173 -0.2757
 1190WAT     H119569   3.663   2.490   0.591 -1.4909 -0.3394  1.6596
 1190WAT     H219570   3.675   2.348   0.640 -0.7221 -1.3559 -1.2955
 1191WAT      O19571   0.791   3.945   7.037 -0.0199  0.1109  0.1463
 1191WAT     H119572   0.828   3.903   7.115 -0.9660  1.3020  1.2839
 1191WAT     H219573   0.850   4.018   7.019  1.3057 -1.2607 -1.4949
 1192WAT      O19574   4.076   3.608   0.489  0.1123 -0.2248  0.1411
 1192WAT     H119575   4.074   3.668   0.414  2.1341 -1.1434 -0.7218
 1192WAT     H219576   4.104   3.662   0.563  0.0141  0.2803 -0.1864
 1193WAT      O19577   5.538   5.841   0.205  0.1102 -0.2391  0.4346
 1193WAT     H119578   5.582   5.821   0.287  1.6374 -2.7291 -0.9089
 1193WAT     H219579   5.466   5.778   0.201  0.0294 -0.1119 -0.1629
 1194WAT      O19580   6.157   3.443   0.413  0.2224  0.2194  0.4284
 1194WAT     H119581   6.137   3.408   0.326 -0.4370 -1.1223  1.0921
 1194WAT     H219582   6.072   3.461   0.452  0.5026  0.5709  0.8915
 1195WAT      O19583   3.692   2.392   7.619  0.1319  0.6238 -0.3903
 1195WAT     H119584   3.598   2.411   7.625  0.2252  1.2185 -0.6814
 1195WAT     H219585   3.716   2.421   7.531 -0.0358 -2.4705 -1.5723
 1196WAT      O19586   4.212   1.968   2.368 -0.4380 -0.3867 -0.4058
 1196WAT     H119587   4.205   1.914   2.289 -1.5863  0.8065 -1.1771
 1196WAT     H219588   4.126   1.961   2.410  0.6093 -2.2037  1.6237
 1197WAT      O19589   0.960   0.575   7.476 -0.1103  0.9241  0.6096
 1197WAT     H119590   0.946   0.650   7.533  0.3043  2.3805 -1.1027
 1197WAT     H219591   0.916   0.598   7.394  0.7929 -0.3004 -0.2664
 1198WAT      O19592   2.358   5.540   1.489  0.0345 -0.1453  0.2655
 1198WAT     H119593   2.367   5.583   1.404  2.7711 -0.9858  0.0255
 1198WAT     H219594   2.388   5.606   1.552 -1.9640  0.4669  0.6237
 1199WAT      O19595   4.687   5.844   7.802 -0.2046 -0.0893 -0.1686
 1199WAT     H119596   4.657   5.919   7.852 -1.6273 -0.6388 -0.1699
 1199WAT     H219597   4.777   5.829   7.833 -0.3059  0.8950  0.6461
 1200WAT      O19598   1.131   4.319   1.208  0.1267 -0.2932 -0.2357
 1200WAT     H119599   1.204   4.280   1.256  0.2103  0.1716  0.0269
 1200WAT     H219600   1.167   4.400   1.171 -0.3918  0.2095  0.3356
 1201WAT      O19601   1.086   3.581   2.242  0.0882 -0.1118  0.0329
 1201WAT     H119602   1.035   3.500   2.241  0.5539 -0.4772  2.1531
 1201WAT     H219603   1.030   3.645   2.286 -0.2703  0.7648 -1.6083
 1202WAT      O19604   0.488   1.707   6.327 -0.6722  0.5063 -0.4300
 1202WAT     H119605   0.440   1.712   6.244 -0.2879  0.4178 -0.6620
 1202WAT     H219606   0.570   1.753   6.309  0.3857 -1.3969 -0.7843
 1203WAT      O19607   5.337   1.095   7.446  0.7774 -0.0808  0.1273
 1203WAT     H119608   5.265   1.035   7.464  1.3162 -1.0389 -0.8211
 1203WAT     H219609   5.411   1.059   7.494  1.0389 -0.0342 -0.2351
 1204WAT      O19610   3.294   4.234   2.302  0.2351  0.0523  0.3619
 1204WAT     H119611   3.319   4.177   2.229  0.2444 -2.2173  2.0183
 1204WAT     H219612   3.210   4.271   2.276 -0.9142 -2.5282  0.0701
 1205WAT      O19613   2.199   5.803   0.177 -0.5727 -0.4766 -0.1240
 1205WAT     H119614   2.139   5.843   0.114  0.6804 -1.2010 -1.8461
 1205WAT     H219615   2.157   5.721   0.201 -0.8498 -0.4095 -0.3726
 1206WAT      O19616   4.176   0.441   5.713  0.2861  0.0104  0.2112
 1206WAT     H119617   4.258   0.448   5.762 -0.3504  2.9403  1.0330
 1206WAT     H219618   4.174   0.519   5.657 -2.0638  0.2026  0.4520
 1207WAT      O19619   2.667   4.252   0.410  0.3329  0.1969  0.1633
 1207WAT     H119620   2.604   4.199   0.459 -0.6826 -0.1504 -1.4788
 1207WAT     H219621   2.752   4.216   0.435 -0.1157  0.2231  1.8723
 1208WAT      O19622   4.532   1.315   6.643  0.2210  0.7385  0.1187
 1208WAT     H119623   4.504   1.302   6.734  0.6324  0.1766  0.1706
 1208WAT     H219624   4.577   1.399   6.644 -0.6818  1.2317  0.2171
 1209WAT      O19625   5.119   2.693   1.684 -0.0560 -0.0137 -0.1855
 1209WAT     H119626   5.213   2.688   1.667  0.1927  1.7074  0.5292
 1209WAT     H219627   5.094   2.603   1.709  1.4141 -0.4470 -0.2177
 1210WAT      O19628   3.656   5.519   1.376  0.2239  0.0504  0.3972
 1210WAT     H119629   3.656   5.476   1.291 -0.6811  1.0690 -0.1549
 1210WAT     H219630   3.648   5.613   1.355  0.0181  0.3156  1.5910
 1211WAT      O19631   2.158   2.165   1.739  0.1464 -0.0008 -0.0713
 1211WAT     H119632   2.141   2.096   1.803 -0.1622 -0.1549 -0.3160
 1211WAT     H219633   2.075   2.211   1.729  0.2071  0.0626 -0.3092
 1212WAT      O19634   5.872   4.875   7.346 -0.1924  0.0591  0.3173
 1212WAT     H119635   5.804   4.937   7.374  0.1761  0.9269 -0.7070
 1212WAT     H219636   5.929   4.925   7.289  1.1132 -0.7747  0.8544
 1213WAT      O19637   3.105   2.706   0.913 -0.7634  0.2299 -0.1014
 1213WAT     H119638   3.117   2.631   0.970 -2.7972  0.7991  1.2112
 1213WAT     H219639   3.186   2.756   0.920  0.2560 -1.3268 -0.2867
 1214WAT      O19640   3.207   3.570   0.688  0.7107 -0.3603  0.1829
 1214WAT     H119641   3.290   3.606   0.657  0.9132 -0.9372  0.0318
 1214WAT     H219642   3.189   3.496   0.630 -0.2301  0.1242 -0.1781
 1215WAT      O19643   5.224   0.873   0.052 -0.2705 -0.2819 -0.1529
 1215WAT     H119644   5.203   0.787   0.087 -0.2148 -0.5552 -0.7861
 1215WAT     H219645   5.208   0.933   0.125 -0.4353 -0.8096  0.2498
 1216WAT      O19646   1.881   4.472   6.734  0.3240 -0.0579  0.6739
 1216WAT     H119647   1.879   4.425   6.818  0.9266  0.2371  0.8593
 1216WAT     H219648   1.967   4.450   6.697  1.6985  2.8210  1.8976
 1217WAT      O19649   1.803   3.061   6.697 -0.0035  0.9697 -0.3144
 1217WAT     H119650   1.722   3.071   6.748  0.9669 -2.7990  2.3907
 1217WAT     H219651   1.862   3.127   6.734 -0.5586  0.9441  0.6623
 1218WAT      O19652   5.850   5.584   6.716 -0.3036  0.0709  0.0338
 1218WAT     H119653   5.840   5.536   6.798 -3.8554  1.3175  0.5005
 1218WAT     H219654   5.878   5.517   6.653 -2.0482 -1.9991  1.3078
 1219WAT      O19655   1.300   0.929   6.177  0.3278 -0.1487  0.1323
 1219WAT     H119656   1.383   0.880   6.181 -0.3700 -1.4341 -0.5767
 1219WAT     H219657   1.275   0.925   6.085 -0.1208  0.9427  0.2051
 1220WAT      O19658   1.121   1.421   7.078  0.2480 -0.3932 -0.1202
 1220WAT     H119659   1.083   1.404   6.991  0.1823  1.4828 -0.4874
 1220WAT     H219660   1.045   1.443   7.133  0.6033  2.2695 -0.5823
 1221WAT      O19661   3.949   3.640   1.878  0.4777 -0.2567 -0.0117
 1221WAT     H119662   3.913   3.693   1.807  0.8474 -0.1062 -0.0923
 1221WAT     H219663   4.041   3.667   1.883  1.0241 -1.7857 -0.9009
 1222WAT      O19664   1.036   2.310   6.403 -0.1653 -0.3236  0.0078
 1222WAT     H119665   1.063   2.392   6.445  0.9111 -1.4306  1.6113
 1222WAT     H219666   0.941   2.311   6.409 -0.1471  0.6137  0.4188
 1223WAT      O19667   4.575   3.329   0.552 -0.3801  0.3537  0.0679
 1223WAT     H119668   4.550   3.261   0.489  1.6711 -1.7318  1.3765
 1223WAT     H219669   4.555   3.411   0.507 -2.3276 -1.0538 -1.8600
 1224WAT      O19670   4.891   3.338   7.536  0.1370 -0.4378 -0.4090
 1224WAT     H119671   4.858   3.271   7.596 -0.5117  0.1381 -0.1100
 1224WAT     H219672   4.869   3.421   7.579 -1.4372  0.0226 -1.9992
 1225WAT      O19673   6.095   5.564   7.071 -0.8133  0.5470 -0.4428
 1225WAT     H119674   6.071   5.607   7.152  1.3229 -0.1184  0.6198
 1225WAT     H219675   6.159   5.623   7.030  0.0071 -0.2542 -0.3674
 1226WAT      O19676   5.659   5.941   6.902 -0.6140 -0.4022  0.1092
 1226WAT     H119677   5.652   5.903   6.814 -1.0431  2.7383 -1.3599
 1226WAT     H219678   5.569   5.952   6.931 -0.6510  1.5339 -0.5596
 1227WAT      O19679   3.058   2.489   7.861 -0.3697 -0.2391  0.6234
 1227WAT     H119680   3.075   2.577   7.827 -1.3446  0.1750  1.1815
 1227WAT     H219681   2.966   2.472   7.838  0.0427 -1.4773 -0.2582
 1228WAT      O19682   0.639   5.413   1.659 -0.2584 -0.0938 -0.4303
 1228WAT     H119683   0.657   5.332   1.707  0.2636 -1.3232 -2.5437
 1228WAT     H219684   0.544   5.416   1.651 -0.4597  0.8094  1.6814
 1229WAT      O19685   4.792   2.601   6.674  0.1630  0.6685 -0.4565
 1229WAT     H119686   4.813   2.549   6.596 -0.3579  0.4271 -0.4379
 1229WAT     H219687   4.845   2.561   6.744 -0.7241 -0.2745 -0.2945
 1230WAT      O19688   3.223   2.572   6.236 -0.0671 -0.3081  0.3885
 1230WAT     H119689   3.155   2.604   6.295 -1.3247 -0.9210 -0.6837
 1230WAT     H219690   3.211   2.622   6.155 -0.1402 -1.3593 -0.2752
 1231WAT      O19691   0.732   0.609   7.718  0.1363 -0.1319 -0.7640
 1231WAT     H119692   0.725   0.534   7.777 -0.2806 -0.4933 -1.2665
 1231WAT     H219693   0.641   0.637   7.703  0.1790 -0.5026 -1.8070
 1232WAT      O19694   1.349   4.201   6.654 -0.4160 -0.2707 -0.4649
 1232WAT     H119695   1.389   4.288   6.650 -1.8443  0.3683 -1.8892
 1232WAT     H219696   1.389   4.153   6.582 -1.7375  0.1982 -1.5518
 1233WAT      O19697   2.415   4.136   6.810  0.1723 -0.1887  0.2068
 1233WAT     H119698   2.495   4.115   6.858  0.2919 -0.8165 -0.2505
 1233WAT     H219699   2.351   4.157   6.877  0.3638 -0.9541  0.6440
 1234WAT      O19700   2.275   3.165   1.159 -0.4545  0.2876 -0.4818
 1234WAT     H119701   2.328   3.218   1.219 -2.8893  2.2273  0.0738
 1234WAT     H219702   2.329   3.158   1.080  1.3993  0.5722  0.6966
 1235WAT      O19703   1.277   0.857   0.788  0.4234 -0.0269  0.5984
 1235WAT     H119704   1.369   0.863   0.760  1.2721 -1.7340  2.6948
 1235WAT     H219705   1.270   0.770   0.827 -2.5960 -0.6489 -1.0563
 1236WAT      O19706   3.117   4.897   6.367 -0.1138 -0.9381  0.4955
 1236WAT     H119707   3.158   4.879   6.452 -0.3211 -0.1883  0.7586
 1236WAT     H219708   3.136   4.819   6.315 -0.2544 -1.5476  1.3300
 1237WAT      O19709   6.075   3.166   6.568  0.6491  0.4838 -0.4325
 1237WAT     H119710   6.006   3.114   6.527  0.5594  0.3080 -0.0634
 1237WAT     H219711   6.029   3.242   6.605  0.6239  0.2484  0.0159
 1238WAT      O19712   1.215   2.010   0.001  0.5215  0.0258 -0.3802
 1238WAT     H119713   1.137   2.062   0.020  1.7835  1.1202  2.4575
 1238WAT     H219714   1.237   1.968   0.085  1.6528 -2.1721 -1.6927
 1239WAT      O19715   2.035   2.999   1.622 -0.4020 -0.3734  0.3192
 1239WAT     H119716   2.055   2.961   1.708  0.4305  1.2290  0.8760
 1239WAT     H219717   2.121   3.011   1.581 -0.5333  1.5888  0.5111
 1240WAT      O19718   0.812   4.405   2.157 -0.2356 -0.6263 -0.2252
 1240WAT     H119719   0.776   4.317   2.141  0.6907 -0.6784 -2.2493
 1240WAT     H219720   0.735   4.460   2.169 -0.8436 -1.9469  2.9367
 1241WAT      O19721   5.854   5.684   7.544 -0.5631  0.2705 -0.5103
 1241WAT     H119722   5.781   5.666   7.603  0.1226 -0.6421  0.0918
 1241WAT     H219723   5.846   5.777   7.523 -0.8481  0.6076  0.9965
 1242WAT      O19724   3.325   1.669   6.269  0.6290  0.3182  0.4095
 1242WAT     H119725   3.278   1.645   6.190  2.3139 -0.7386 -0.3465
 1242WAT     H219726   3.274   1.740   6.308 -0.4580  0.5771 -1.3969
 1243WAT      O19727   2.160   5.368   7.297 -0.2439  0.5636  0.2442
 1243WAT     H119728   2.125   5.320   7.221  0.4716  2.5606 -1.4617
 1243WAT     H219729   2.086   5.376   7.356 -1.6878  1.3753 -1.5562
 1244WAT      O19730   5.621   1.364   7.889  0.1358  0.1262  0.0373
 1244WAT     H119731   5.574   1.283   7.907 -0.2315  0.6979  1.8343
 1244WAT     H219732   5.713   1.343   7.902  0.0857 -0.1251 -0.0226
 1245WAT      O19733   5.906   5.342   7.626 -0.3499  0.4308  0.1050
 1245WAT     H119734   5.934   5.425   7.664  2.2887 -0.8437  1.1699
 1245WAT     H219735   5.959   5.331   7.548 -1.2997  0.1092 -0.5203
 1246WAT      O19736   4.462   3.282   6.206 -0.3461 -0.1240  0.9253
 1246WAT     H119737   4.485   3.367   6.168 -2.4795 -0.4997 -1.4871
 1246WAT     H219738   4.538   3.227   6.187  0.3618  0.7981  0.9981
 1247WAT      O19739   1.294   4.094   6.249 -0.4039 -0.5876 -0.3302
 1247WAT     H119740   1.301   4.162   6.182 -0.1319 -0.0340  0.2459
 1247WAT     H219741   1.201   4.093   6.271 -0.8770 -2.2278 -2.1699
 1248WAT      O19742   2.089   2.155   7.298  0.0064 -0.1480  0.3217
 1248WAT     H119743   2.166   2.137   7.244  1.3092 -1.3916  2.4233
 1248WAT     H219744   2.022   2.182   7.236  1.8921  0.2105 -1.6926
 1249WAT      O19745   1.805   0.520   7.168  0.3315  0.1814  0.4228
 1249WAT     H119746   1.843   0.598   7.128  0.5605 -0.7383 -1.2685
 1249WAT     H219747   1.712   0.524   7.145  0.2493  0.1919  0.7477
 1250WAT      O19748   0.823   0.661   7.241  0.2249  0.6760 -0.4104
 1250WAT     H119749   0.747   0.624   7.197 -0.4147 -1.3706  2.2041
 1250WAT     H219750   0.898   0.634   7.187 -0.4338 -2.6254  0.1260
 1251WAT      O19751   3.949   3.182   7.435 -0.1943  0.0552  0.0338
 1251WAT     H119752   3.917   3.271   7.443  0.8358  0.9050 -3.4317
 1251WAT     H219753   3.881   3.135   7.388  0.3338 -0.2718 -0.4229
 1252WAT      O19754   4.843   3.537   2.503 -0.8284  0.2822  0.2751
 1252WAT     H119755   4.808   3.479   2.436 -0.9728  0.4791  0.1776
 1252WAT     H219756   4.913   3.585   2.458 -0.1749 -0.3741  0.5696
 1253WAT      O19757   1.684   2.656   6.564 -0.3103  0.2395 -0.1631
 1253WAT     H119758   1.758   2.633   6.508 -0.6306 -0.3556 -0.3540
 1253WAT     H219759   1.715   2.640   6.653 -0.4523 -0.7519 -0.2806
 1254WAT      O19760   5.384   6.133   6.296  0.2485 -0.1504  0.0794
 1254WAT     H119761   5.432   6.112   6.215 -0.1133  1.1596 -0.5022
 1254WAT     H219762   5.305   6.178   6.265  0.2350  0.5962  1.1774
 1255WAT      O19763   2.982   0.380   7.533 -0.0827  0.5244 -0.2817
 1255WAT     H119764   2.971   0.468   7.568  1.5526 -0.2576  2.6013
 1255WAT     H219765   2.969   0.323   7.609 -0.1411 -1.6624 -1.8456
 1256WAT      O19766   4.554   4.415   0.979  0.4557 -0.0780 -0.0633
 1256WAT     H119767   4.497   4.483   1.014 -1.4035 -2.7896  2.8177
 1256WAT     H219768   4.628   4.412   1.039  1.5948  0.7160 -1.3927
 1257WAT      O19769   4.237   1.754   7.664 -0.4060 -0.4681  0.4127
 1257WAT     H119770   4.246   1.828   7.723 -0.5760  0.2101 -0.3987
 1257WAT     H219771   4.326   1.721   7.652 -0.1671  0.3815 -0.2000
 1258WAT      O19772   3.509   4.817   0.893  0.7320 -0.1032  0.6224
 1258WAT     H119773   3.419   4.811   0.924  0.9493  1.0470  1.5459
 1258WAT     H219774   3.550   4.735   0.922  0.1595 -0.3277  0.8054
 1259WAT      O19775   5.865   3.048   6.423  0.7502 -0.2591 -0.6251
 1259WAT     H119776   5.850   3.098   6.343  0.6060 -0.0662 -0.4739
 1259WAT     H219777   5.942   2.993   6.402  1.5278  0.7372 -0.4508
 1260WAT      O19778   1.081   5.073   1.033  0.2010  0.1718  0.1016
 1260WAT     H119779   1.171   5.040   1.031  0.7520  1.5778 -1.6819
 1260WAT     H219780   1.071   5.109   1.121 -0.0288 -3.3841  1.7027
 1261WAT      O19781   2.401   3.858   7.526 -0.6939  0.7139 -0.2796
 1261WAT     H119782   2.461   3.821   7.460 -0.4032  0.5611  0.0653
 1261WAT     H219783   2.409   3.953   7.515 -0.0392  0.7022  0.0702
 1262WAT      O19784   2.889   2.654   6.287 -0.2597  0.2280 -0.3443
 1262WAT     H119785   2.894   2.654   6.191 -1.4440  0.1338 -0.4286
 1262WAT     H219786   2.826   2.584   6.307  0.1685  0.0806  0.5152
 1263WAT      O19787   0.107   4.098   6.716 -0.2187 -0.4597  0.1657
 1263WAT     H119788   0.161   4.042   6.772 -1.7152  0.2458  2.5000
 1263WAT     H219789   0.096   4.179   6.767 -2.4543 -0.1406 -0.6952
 1264WAT      O19790   3.718   4.074   0.624  0.6735  0.6884  0.2100
 1264WAT     H119791   3.673   4.041   0.546 -0.7266  1.0357  0.8311
 1264WAT     H219792   3.797   4.021   0.630  1.0350  0.9340 -1.6703
 1265WAT      O19793   3.882   5.174   1.357  0.3513 -0.0942  0.1671
 1265WAT     H119794   3.841   5.118   1.423  0.0529 -0.7022 -0.5185
 1265WAT     H219795   3.832   5.157   1.277  0.7447  0.5863 -0.2333
 1266WAT      O19796   3.604   2.983   6.807 -0.3628 -0.0127  0.3558
 1266WAT     H119797   3.606   3.040   6.731  0.6033 -1.2895 -0.6168
 1266WAT     H219798   3.541   3.025   6.867  0.7915  2.4112 -0.0058
 1267WAT      O19799   1.660   0.844   1.796  0.1550  0.1550  0.2388
 1267WAT     H119800   1.748   0.847   1.759  0.1872 -0.8007  0.1976
 1267WAT     H219801   1.612   0.913   1.750  0.3349 -0.6760 -1.2447
 1268WAT      O19802   5.035   2.499   7.658 -0.1569  0.5104 -0.1570
 1268WAT     H119803   4.984   2.447   7.720  0.3740 -0.7274 -0.7384
 1268WAT     H219804   5.002   2.473   7.572  0.8682  0.3072 -0.5004
 1269WAT      O19805   1.714   2.419   7.309  0.2481  0.5010 -0.1519
 1269WAT     H119806   1.783   2.353   7.316 -0.3368 -0.0740  0.4062
 1269WAT     H219807   1.744   2.490   7.365 -0.2557 -0.3567  1.2689
 1270WAT      O19808   4.934   4.715   0.492 -0.8426  0.2547 -0.3547
 1270WAT     H119809   4.838   4.715   0.483 -0.7983  0.8815 -0.8942
 1270WAT     H219810   4.955   4.800   0.530 -0.6941 -0.9001  2.4348
 1271WAT      O19811   6.121   1.609   2.146  0.1965  0.4179 -0.1740
 1271WAT     H119812   6.201   1.622   2.198  0.5537 -2.4501  0.1396
 1271WAT     H219813   6.153   1.597   2.057 -0.1308  1.7129 -0.4853
 1272WAT      O19814   1.954   0.446   7.912 -1.0403  0.1940 -0.8409
 1272WAT     H119815   2.049   0.459   7.917 -1.0754  0.5900 -1.1031
 1272WAT     H219816   1.923   0.520   7.860 -1.5950  0.5129 -0.0667
 1273WAT      O19817   0.331   3.969   1.219  0.0758 -0.2301 -0.1342
 1273WAT     H119818   0.274   3.944   1.291  1.9320 -0.9396  1.1645
 1273WAT     H219819   0.402   4.018   1.260  1.4106 -1.0148 -1.3956
 1274WAT      O19820   5.874   4.186   6.444 -0.0384  0.5095  0.2629
 1274WAT     H119821   5.969   4.183   6.452  0.0564  0.7854 -0.6829
 1274WAT     H219822   5.855   4.274   6.413 -0.7946  1.2598  2.6280
 1275WAT      O19823   3.293   3.344   6.420  0.2742 -0.8785  0.2855
 1275WAT     H119824   3.336   3.417   6.463  2.3977 -1.5918 -0.5254
 1275WAT     H219825   3.210   3.380   6.389  1.2424  1.1669 -0.0634
 1276WAT      O19826   2.881   3.965   6.164 -0.0769 -0.0913  0.2196
 1276WAT     H119827   2.934   4.042   6.185  1.9009 -1.2266 -0.2532
 1276WAT     H219828   2.870   3.970   6.069  1.8005 -1.3675 -0.1119
 1277WAT      O19829   4.197   0.931   1.378  0.2947  0.0786  0.6776
 1277WAT     H119830   4.122   0.981   1.346  0.4917 -0.7097 -1.1933
 1277WAT     H219831   4.165   0.841   1.382  0.7799 -0.0765  1.1023
 1278WAT      O19832   1.620   3.282   5.851 -0.6322 -0.2844 -0.5948
 1278WAT     H119833   1.605   3.227   5.927 -0.2799  1.3770  0.7281
 1278WAT     H219834   1.533   3.297   5.814 -0.9828  0.0500  0.3417
 1279WAT      O19835   4.553   5.764   0.708 -0.4061 -0.2839  0.2498
 1279WAT     H119836   4.538   5.682   0.755 -3.5702  0.6581  1.0871
 1279WAT     H219837   4.592   5.823   0.773 -0.6550 -0.3133  0.4249
 1280WAT      O19838   1.538   0.205   7.666  0.0800 -0.1834 -0.4287
 1280WAT     H119839   1.609   0.269   7.678  0.1173 -0.1138 -0.9776
 1280WAT     H219840   1.568   0.127   7.712 -0.0585  0.2555  0.4354
 1281WAT      O19841   0.020   2.230   7.764  0.1807 -0.0019 -0.0906
 1281WAT     H119842   0.105   2.269   7.746  1.3873 -2.5930 -0.4798
 1281WAT     H219843   0.036   2.169   7.836 -1.6575  0.3617  0.6956
 1282WAT      O19844   5.607   3.184   0.649 -0.3549 -0.2036  0.6555
 1282WAT     H119845   5.637   3.145   0.731 -0.8187  0.2210  1.0344
 1282WAT     H219846   5.615   3.114   0.584 -0.5913 -0.7355  1.1921
 1283WAT      O19847   0.329   1.089   0.126 -0.1038 -0.0300  0.2456
 1283WAT     H119848   0.320   1.132   0.041 -1.6045  0.0176  0.3948
 1283WAT     H219849   0.282   1.146   0.187 -0.8251 -1.1041  0.7210
 1284WAT      O19850   3.825   3.402   1.898  0.2009 -0.3362 -0.0116
 1284WAT     H119851   3.838   3.497   1.892  1.3061 -0.3710  1.3242
 1284WAT     H219852   3.730   3.391   1.901 -0.0345  0.5624 -1.9540
 1285WAT      O19853   5.458   5.866   7.558 -0.0777 -0.2963  0.1870
 1285WAT     H119854   5.381   5.839   7.507  0.4199  0.9149 -1.2854
 1285WAT     H219855   5.426   5.935   7.615  0.0762  0.8955 -1.1228
 1286WAT      O19856   4.434   5.248   6.493  0.2172 -0.5951 -0.0847
 1286WAT     H119857   4.484   5.172   6.523  1.5334  0.7162  1.2292
 1286WAT     H219858   4.498   5.301   6.445  0.2449  1.1615  1.7089
 1287WAT      O19859   1.113   3.482   6.924  0.0552 -0.2483 -0.4345
 1287WAT     H119860   1.207   3.485   6.906  0.0297  1.0667 -0.4560
 1287WAT     H219861   1.093   3.568   6.960 -1.1488 -0.5010 -0.4597
 1288WAT      O19862   1.813   3.165   0.509  0.3664 -0.5696 -0.3664
 1288WAT     H119863   1.755   3.233   0.544  1.1230  0.9876 -1.9748
 1288WAT     H219864   1.785   3.085   0.552 -2.1144  0.3469 -0.1140
 1289WAT      O19865   3.597   1.621   7.262 -0.5327  0.8892  0.3599
 1289WAT     H119866   3.673   1.578   7.223 -0.8803 -0.1513  0.7769
 1289WAT     H219867   3.622   1.713   7.271  0.4348  0.6737 -0.0842
 1290WAT      O19868   1.286   5.761   0.688  0.1302  0.2021  0.1684
 1290WAT     H119869   1.350   5.690   0.697 -0.0863  0.1812  2.0805
 1290WAT     H219870   1.318   5.828   0.748 -0.8733  0.7845  0.0667
 1291WAT      O19871   4.885   0.014   7.402 -0.4240 -0.4590  0.1591
 1291WAT     H119872   4.828  -0.054   7.368  0.2948 -1.1149  0.2405
 1291WAT     H219873   4.973  -0.013   7.376 -0.2512  1.4730 -1.6188
 1292WAT      O19874   0.541   1.438   0.101  0.1219  0.1175  0.3454
 1292WAT     H119875   0.481   1.388   0.156  0.0385 -0.0239  0.1280
 1292WAT     H219876   0.584   1.499   0.162 -1.9173  1.8819  0.1715
 1293WAT      O19877   2.569   1.276   1.470  0.3349 -0.2894 -0.4585
 1293WAT     H119878   2.553   1.226   1.550  0.1858  0.0939 -0.2438
 1293WAT     H219879   2.660   1.256   1.447  0.1308 -1.0399 -0.6535
 1294WAT      O19880   0.587   0.457   6.541 -0.6269  0.1966  0.4756
 1294WAT     H119881   0.660   0.506   6.502 -1.0270  0.2716 -0.1908
 1294WAT     H219882   0.574   0.382   6.483 -1.3051  0.3720  0.3905
 1295WAT      O19883   6.203   1.803   5.846  0.9542 -0.6495 -0.4170
 1295WAT     H119884   6.273   1.869   5.841  0.6557 -0.3073 -0.1286
 1295WAT     H219885   6.138   1.832   5.783  0.1094  0.1934  0.7838
 1296WAT      O19886   1.663   5.167   7.226  0.1482 -0.0949 -0.3176
 1296WAT     H119887   1.630   5.101   7.166  0.7618 -1.3520  0.6753
 1296WAT     H219888   1.621   5.249   7.198 -0.4920 -0.8629 -1.6748
 1297WAT      O19889   5.913   0.890   6.587 -0.0656 -0.4885  0.5500
 1297WAT     H119890   5.841   0.943   6.623 -1.1679 -0.8191 -1.0404
 1297WAT     H219891   5.983   0.952   6.571 -0.7976  0.2577  0.1238
 1298WAT      O19892   5.243   3.639   6.164  0.7359  0.1563  0.3356
 1298WAT     H119893   5.334   3.619   6.185  0.1432 -2.1835  1.0588
 1298WAT     H219894   5.237   3.734   6.170  2.6744  0.2425  2.2872
 1299WAT      O19895   0.386   4.797   7.218  0.6681 -0.1775  0.0508
 1299WAT     H119896   0.373   4.747   7.137 -1.3853 -0.3583  0.4179
 1299WAT     H219897   0.480   4.795   7.233  0.9608 -1.2611 -1.6307
 1300WAT      O19898   2.614   5.915   0.598  0.2170 -0.1417  0.5021
 1300WAT     H119899   2.603   6.008   0.578  0.1098 -0.4909 -1.1734
 1300WAT     H219900   2.554   5.899   0.671 -1.1003  0.7342 -0.3452
 1301WAT      O19901   5.814   5.754   7.865 -0.2741  0.2164 -0.5820
 1301WAT     H119902   5.731   5.744   7.817 -0.4382 -2.0657  0.0661
 1301WAT     H219903   5.842   5.665   7.883  2.0687  0.9568 -0.2745
 1302WAT      O19904   0.440   2.066   0.606 -0.0727 -0.5229 -0.4781
 1302WAT     H119905   0.483   2.047   0.522 -0.4145 -1.3784 -0.4628
 1302WAT     H219906   0.499   2.129   0.649 -0.1628  0.3588 -1.5923
 1303WAT      O19907   3.538   1.990   7.048  0.2217 -0.5360 -0.3262
 1303WAT     H119908   3.522   2.064   7.107  0.6776 -0.3679 -0.4107
 1303WAT     H219909   3.454   1.976   7.005 -0.2175 -0.8871  0.6196
 1304WAT      O19910   5.533   5.257   7.207  0.0049  0.1313  0.7436
 1304WAT     H119911   5.576   5.302   7.280  1.7490 -0.7788  0.3387
 1304WAT     H219912   5.526   5.324   7.138 -1.1183  0.8337  1.5036
 1305WAT      O19913   2.568   6.026   1.148  0.8067  0.5952  0.1664
 1305WAT     H119914   2.630   5.984   1.208 -0.3960 -2.8263 -0.7548
 1305WAT     H219915   2.623   6.062   1.079  1.9243  0.0338  0.7349
 1306WAT      O19916   3.914   2.726   6.552 -0.1948 -0.3273  0.2500
 1306WAT     H119917   3.983   2.787   6.530  0.0756 -1.1232 -1.2191
 1306WAT     H219918   3.960   2.647   6.581 -0.5197 -0.3615  0.6914
 1307WAT      O19919   2.106   4.896   0.757 -0.0317  0.2106  0.3668
 1307WAT     H119920   2.071   4.870   0.843 -1.6227  1.1767  0.0376
 1307WAT     H219921   2.066   4.835   0.696  1.8165 -1.0784  0.3488
 1308WAT      O19922   2.010   0.564   7.364 -0.6958 -0.3666 -0.4411
 1308WAT     H119923   1.924   0.552   7.324 -1.2821  0.7326  0.4202
 1308WAT     H219924   2.010   0.655   7.395  1.5969  0.3964 -2.3284
 1309WAT      O19925   3.880   0.418   6.454 -0.1517  0.0044  0.2990
 1309WAT     H119926   3.969   0.386   6.465 -0.5364 -1.4896 -0.6575
 1309WAT     H219927   3.888   0.491   6.393  0.2550 -1.1874 -1.1277
 1310WAT      O19928   3.329   1.128   0.523  0.0609 -0.1786 -0.3402
 1310WAT     H119929   3.377   1.121   0.606  0.4774  1.4254 -0.4111
 1310WAT     H219930   3.348   1.216   0.492 -1.4215 -0.1685 -1.3253
 1311WAT      O19931   3.619   4.810   5.825 -0.1176  0.0161 -0.4454
 1311WAT     H119932   3.600   4.718   5.842  4.2143 -1.2063 -1.0207
 1311WAT     H219933   3.714   4.815   5.826 -0.1536  4.6434 -0.0514
 1312WAT      O19934   4.003   5.853   7.733  0.4933 -0.9039  0.1013
 1312WAT     H119935   3.945   5.812   7.798  0.3003  0.8529  1.0872
 1312WAT     H219936   3.975   5.816   7.650 -1.1459 -1.1204  0.7107
 1313WAT      O19937   2.549   2.610   6.287 -0.1053 -0.4318 -0.0186
 1313WAT     H119938   2.574   2.589   6.197  0.6456 -0.7565  0.2618
 1313WAT     H219939   2.607   2.557   6.341 -1.6089 -1.4326  0.6614
 1314WAT      O19940   3.282   0.953   1.049 -0.6224 -0.0468 -0.3123
 1314WAT     H119941   3.328   1.008   1.111 -1.5700  1.4223 -0.8493
 1314WAT     H219942   3.339   0.878   1.035  0.5305  0.6159  0.7439
 1315WAT      O19943   0.850   2.803   5.386 -0.3015  0.0985  0.2018
 1315WAT     H119944   0.924   2.859   5.411  0.5545 -0.6752 -0.5088
 1315WAT     H219945   0.856   2.728   5.444 -0.7595  0.2021  0.3861
 1316WAT      O19946   3.063   5.614   1.164  0.5228  0.1519 -0.0147
 1316WAT     H119947   3.015   5.688   1.128  1.7317  0.9493 -0.0737
 1316WAT     H219948   3.130   5.595   1.098 -0.1202 -1.3899 -0.2686
 1317WAT      O19949   4.370   0.748   7.456 -0.2121 -0.7357  0.1470
 1317WAT     H119950   4.342   0.678   7.516  0.5076 -0.9041  0.2895
 1317WAT     H219951   4.439   0.794   7.504 -0.5809 -0.0070 -0.0025
 1318WAT      O19952   4.119   0.696   0.428  0.1214  0.0364  0.1162
 1318WAT     H119953   4.089   0.725   0.514 -1.2156  0.9867 -0.6450
 1318WAT     H219954   4.045   0.648   0.391  1.1470 -1.5288 -0.0019
 1319WAT      O19955   1.193   2.949   0.210  0.1108  0.0100  0.0163
 1319WAT     H119956   1.277   2.991   0.228  0.2839  0.9271 -2.5523
 1319WAT     H219957   1.216   2.864   0.173 -0.0054  0.5943 -1.4763
 1320WAT      O19958   0.443   4.692   5.902  0.6132 -0.4339  0.2587
 1320WAT     H119959   0.357   4.668   5.936  1.1132 -0.4670  1.5827
 1320WAT     H219960   0.431   4.780   5.866  0.2624  0.0431  1.4799
 1321WAT      O19961   1.447   2.969   5.541 -0.0556 -0.0680 -0.2466
 1321WAT     H119962   1.402   3.045   5.505  2.2354  1.4302 -0.1583
 1321WAT     H219963   1.529   3.004   5.576  0.9096 -2.5326  0.1665
 1322WAT      O19964   4.346   0.504   0.505 -0.0685  0.3767 -0.2584
 1322WAT     H119965   4.266   0.547   0.474  0.4622  0.2306 -1.9544
 1322WAT     H219966   4.391   0.475   0.425  1.7995  0.6539  0.6181
 1323WAT      O19967   0.077   0.801   7.250  0.5720  0.0071  0.4931
 1323WAT     H119968   0.090   0.853   7.171  0.7891  0.1019  0.5920
 1323WAT     H219969   0.019   0.730   7.222  2.1710 -1.0723 -0.2371
 1324WAT      O19970   2.096   4.542   1.006 -0.2286  0.2991 -0.1143
 1324WAT     H119971   2.013   4.528   0.960  0.0001  1.6563 -0.9925
 1324WAT     H219972   2.160   4.494   0.954  0.0573  1.9570 -1.4003
 1325WAT      O19973   4.060   1.059   1.694  0.0699 -0.1531  0.6490
 1325WAT     H119974   4.101   1.140   1.663 -2.6256  0.7011 -0.9817
 1325WAT     H219975   4.014   1.025   1.617  0.2412 -2.7091  1.5888
 1326WAT      O19976   3.279   1.767   6.549 -0.5999  0.4894 -0.3890
 1326WAT     H119977   3.333   1.846   6.559 -1.0420  0.7927 -0.3717
 1326WAT     H219978   3.189   1.799   6.557 -0.7609 -0.1255  0.3609
 1327WAT      O19979   0.532   4.832   6.225  0.2647  0.2060 -0.1005
 1327WAT     H119980   0.537   4.921   6.190  3.8060  0.7003  1.3079
 1327WAT     H219981   0.527   4.844   6.320 -1.9779 -1.1665  0.0278
 1328WAT      O19982   1.970   2.840   7.411  0.4876 -0.1718  0.0408
 1328WAT     H119983   2.046   2.849   7.354  0.7339  0.7893  0.5135
 1328WAT     H219984   1.950   2.746   7.409  2.4369 -0.6509  0.8826
 1329WAT      O19985   4.054   1.639   6.989 -0.3028  0.3583 -0.2193
 1329WAT     H119986   4.146   1.623   7.012 -0.3607 -1.6317 -1.1789
 1329WAT     H219987   4.058   1.704   6.919  0.5195 -0.8547 -1.3528
 1330WAT      O19988   3.236   0.215   0.220  0.2020  0.4127 -0.2383
 1330WAT     H119989   3.143   0.215   0.197 -0.1850 -2.4266  0.8892
 1330WAT     H219990   3.237   0.225   0.316  1.1488  1.2858 -0.3156
 1331WAT      O19991   4.424   0.415   7.360 -0.4020 -0.4454  0.0068
 1331WAT     H119992   4.503   0.372   7.395 -0.3929 -0.9266 -0.5820
 1331WAT     H219993   4.443   0.427   7.267 -0.9134 -0.3114 -0.0795
 1332WAT      O19994   2.027   2.365   7.485  0.1459  0.7093  0.0935
 1332WAT     H119995   2.031   2.287   7.431 -0.7203 -0.0830  1.1263
 1332WAT     H219996   2.118   2.397   7.488  0.3315  0.3422 -1.1637
 1333WAT      O19997   0.720   1.813   7.424 -0.6250  0.1570  0.2862
 1333WAT     H119998   0.654   1.822   7.493 -0.4408  2.8782  0.2012
 1333WAT     H219999   0.804   1.827   7.468 -0.3733  0.2287 -0.2049
 1334WAT      O20000   3.824   5.962   6.304 -0.3911 -0.1487  0.1179
 1334WAT     H120001   3.825   5.976   6.209 -0.5682 -0.6535  0.0403
 1334WAT     H220002   3.745   6.005   6.334  1.5857  3.5723  0.6113
 1335WAT      O20003   5.029   4.061   1.406 -0.2957  0.3812  0.2806
 1335WAT     H120004   5.110   4.112   1.416  0.8005 -0.7660 -2.0645
 1335WAT     H220005   5.046   3.980   1.454  1.2034 -1.0807 -2.4603
 1336WAT      O20006   1.752   3.167   0.227  0.0008  0.2341 -0.2969
 1336WAT     H120007   1.819   3.230   0.201 -0.7076  1.0938 -0.0916
 1336WAT     H220008   1.734   3.189   0.319 -1.1986  0.6117 -0.6079
 1337WAT      O20009   3.530   1.984   6.147  0.8881 -0.3351 -0.4006
 1337WAT     H120010   3.492   2.007   6.232  1.8260 -0.9750  0.2205
 1337WAT     H220011   3.464   2.008   6.083  0.6603  1.3483  0.4149
 1338WAT      O20012   2.855   1.596   0.362 -0.4845 -0.4822 -0.3001
 1338WAT     H120013   2.932   1.630   0.317 -1.0059  0.2711 -0.6302
 1338WAT     H220014   2.803   1.554   0.293 -0.8664 -0.0864 -0.2555
 1339WAT      O20015   0.697   5.735   7.177  0.2898 -0.2652 -0.6672
 1339WAT     H120016   0.788   5.744   7.147  0.3965  1.1877 -0.0057
 1339WAT     H220017   0.664   5.660   7.129  0.3558  2.0445 -4.8377
 1340WAT      O20018   5.017   4.890   6.588 -0.1478  0.3143  0.0452
 1340WAT     H120019   5.054   4.834   6.656  0.9448  1.4976  0.4727
 1340WAT     H220020   5.071   4.874   6.511 -0.6621 -0.1755 -0.2214
 1341WAT      O20021   3.713   4.512   1.290 -0.0073  0.4785  0.1130
 1341WAT     H120022   3.645   4.449   1.266  0.7392 -0.3591  0.1339
 1341WAT     H220023   3.669   4.597   1.286 -0.9216  0.0070 -0.3661
 1342WAT      O20024   5.211   4.941   7.400 -0.2346  0.4019 -0.8142
 1342WAT     H120025   5.228   5.035   7.394  3.0580 -0.0498 -0.4890
 1342WAT     H220026   5.295   4.900   7.380 -1.2866 -2.4599  0.0774
 1343WAT      O20027   0.790   0.142   6.566 -0.1670 -0.2217 -0.1626
 1343WAT     H120028   0.802   0.201   6.640  2.4337 -1.7854  0.8136
 1343WAT     H220029   0.731   0.188   6.507 -2.0795  1.2532  2.6821
 1344WAT      O20030   0.375   5.744   6.879  0.0914  0.0409 -0.0979
 1344WAT     H120031   0.347   5.756   6.789 -0.7841 -1.4550 -0.0590
 1344WAT     H220032   0.468   5.724   6.873 -0.0501 -0.4527 -0.7065
 1345WAT      O20033   5.395   0.547   7.428  0.4319  0.0916  0.0953
 1345WAT     H120034   5.320   0.604   7.413  1.3960  1.7568  1.2214
 1345WAT     H220035   5.375   0.502   7.510  0.3506  0.0032  0.0269
 1346WAT      O20036   5.436   4.458   0.028  0.0865  0.4274  0.7461
 1346WAT     H120037   5.463   4.473   0.119 -0.3156  0.2465  0.8984
 1346WAT     H220038   5.430   4.546  -0.010  1.9823  0.4297  0.3753
 1347WAT      O20039   2.187   0.690   6.410 -0.6632  0.2496  0.3308
 1347WAT     H120040   2.096   0.660   6.405  0.0090 -2.0957  0.7392
 1347WAT     H220041   2.211   0.710   6.320 -1.7741  1.6576  0.3116
 1348WAT      O20042   2.640   0.952   7.946 -0.1450 -0.2922 -0.0780
 1348WAT     H120043   2.618   0.978   7.857  0.9973  2.2775  0.3016
 1348WAT     H220044   2.555   0.932   7.986 -0.8936  0.5578 -1.1587
 1349WAT      O20045   4.735   3.764   0.832 -0.1985 -0.5833  0.5501
 1349WAT     H120046   4.694   3.692   0.880 -0.4631 -1.1574 -0.5125
 1349WAT     H220047   4.826   3.736   0.820  0.3227  0.2838  2.0942
 1350WAT      O20048   1.759   3.465   5.318  0.2793 -0.5937 -0.8256
 1350WAT     H120049   1.706   3.385   5.320 -0.4324 -0.1264 -0.4097
 1350WAT     H220050   1.848   3.434   5.302  0.2216 -1.5882  0.5559
 1351WAT      O20051   3.842   4.289   1.576  0.5748  0.5768 -1.0377
 1351WAT     H120052   3.895   4.245   1.643 -0.4635 -0.4884 -0.8684
 1351WAT     H220053   3.879   4.260   1.493  0.7651  0.4838 -0.9207
 1352WAT      O20054   4.625   0.056   0.380  0.5399 -0.6764  0.2034
 1352WAT     H120055   4.622  -0.006   0.452  0.1801 -0.2806  0.5328
 1352WAT     H220056   4.568   0.018   0.313  1.6315 -1.5191 -0.2637
 1353WAT      O20057   1.008   2.938   6.662  0.1470 -0.0603 -0.0560
 1353WAT     H120058   1.010   3.003   6.732 -0.1990 -0.1261  0.0138
 1353WAT     H220059   0.935   2.880   6.684  0.1178 -0.1575 -0.4040
 1354WAT      O20060   4.211   0.441   6.604  0.0098  0.3587 -0.3637
 1354WAT     H120061   4.289   0.457   6.551  0.6562  0.3406  0.5629
 1354WAT     H220062   4.217   0.505   6.675 -1.9427  1.8060 -1.4413
 1355WAT      O20063   3.214   2.498   6.967 -0.2014 -0.7383  0.7093
 1355WAT     H120064   3.178   2.442   7.036  2.3827 -1.2797  1.7063
 1355WAT     H220065   3.304   2.515   6.994  0.0346  1.3914 -1.1432
 1356WAT      O20066   0.548   2.343   0.406 -0.1882  0.4993  0.1831
 1356WAT     H120067   0.509   2.430   0.401 -0.6900  0.3837  1.6415
 1356WAT     H220068   0.557   2.326   0.499  1.7224 -0.2286 -0.0863
 1357WAT      O20069   0.514   3.433   5.613 -0.2573  0.2225  0.3440
 1357WAT     H120070   0.562   3.375   5.553  0.3156  1.2318 -0.2004
 1357WAT     H220071   0.518   3.519   5.571 -0.2320  0.8628  1.6248
 1358WAT      O20072   4.095   2.058   5.487 -0.1163 -0.6687  0.1634
 1358WAT     H120073   4.137   2.060   5.573 -0.2677  0.2771  0.2217
 1358WAT     H220074   4.165   2.077   5.425  0.5746 -3.7986 -0.2083
 1359WAT      O20075   5.252   0.796   0.855 -0.3591  0.8254  0.0830
 1359WAT     H120076   5.238   0.879   0.811  0.8441  1.0393  0.0483
 1359WAT     H220077   5.339   0.805   0.895 -0.7865  0.0873  1.2344
 1360WAT      O20078   2.504   4.459   0.874 -0.5281 -0.3533 -0.2057
 1360WAT     H120079   2.561   4.384   0.855  0.8692  0.2712  1.2587
 1360WAT     H220080   2.526   4.524   0.807  0.1018 -0.3255  0.0208
 1361WAT      O20081   0.816   1.654   6.962  0.2768  0.2101 -0.0080
 1361WAT     H120082   0.789   1.638   7.053  1.5771 -0.6463  0.2568
 1361WAT     H220083   0.870   1.733   6.966  0.4203  0.1128 -0.0185
 1362WAT      O20084   5.400   0.806   6.229  0.7336 -0.0103  0.3579
 1362WAT     H120085   5.495   0.808   6.225  0.6882  0.3900 -1.4327
 1362WAT     H220086   5.373   0.897   6.225  0.2636 -0.1736 -0.4305
 1363WAT      O20087   2.466   2.557   0.364  0.3586  0.8480  0.0950
 1363WAT     H120088   2.371   2.548   0.360  0.3557  1.2710 -2.3381
 1363WAT     H220089   2.480   2.642   0.406 -0.2924  0.4442  1.1673
 1364WAT      O20090   5.283   2.208   0.574 -0.1738 -0.1656 -0.0229
 1364WAT     H120091   5.312   2.127   0.615  0.9303  0.0425 -0.3649
 1364WAT     H220092   5.274   2.187   0.481  1.4856  0.4252 -0.3547
 1365WAT      O20093   0.788   1.310   0.210 -0.0844 -0.1073 -0.5788
 1365WAT     H120094   0.738   1.367   0.151 -0.3752  0.4029  0.1345
 1365WAT     H220095   0.726   1.241   0.235  0.1374 -0.5049 -1.1126
 1366WAT      O20096   4.283   6.071   0.352  0.1034 -0.5823  0.4215
 1366WAT     H120097   4.247   6.095   0.437 -3.5027 -1.7252 -0.6377
 1366WAT     H220098   4.329   5.988   0.368 -0.3452 -0.6710  1.2775
 1367WAT      O20099   5.525   6.091   6.643  0.5073  0.1064  0.2566
 1367WAT     H120100   5.432   6.091   6.669  0.0786  0.6057 -1.1956
 1367WAT     H220101   5.572   6.093   6.726 -0.7750 -0.5760  1.0410
 1368WAT      O20102   4.859   0.793   0.096  0.8615  0.2032 -0.3415
 1368WAT     H120103   4.865   0.837   0.181  1.0575 -0.1997 -0.1465
 1368WAT     H220104   4.839   0.702   0.118 -3.3416  0.8010 -0.7919
 1369WAT      O20105   3.162   6.179   7.599 -0.0040 -0.4088  0.2249
 1369WAT     H120106   3.165   6.261   7.650 -0.6020  0.0824 -0.5044
 1369WAT     H220107   3.253   6.161   7.578  0.0761  0.5052 -0.2778
 1370WAT      O20108   2.622   1.269   0.303 -0.4071 -0.6030 -0.7748
 1370WAT     H120109   2.679   1.221   0.243  2.0093  1.0849  0.0256
 1370WAT     H220110   2.593   1.345   0.253  0.5188  0.0953 -0.2872
 1371WAT      O20111   5.866   2.838   1.482 -0.1237  0.0730 -0.1267
 1371WAT     H120112   5.826   2.756   1.510 -1.8325  0.3474 -1.5948
 1371WAT     H220113   5.960   2.826   1.497 -0.0211 -3.0502 -2.4735
 1372WAT      O20114   3.139   1.837   5.998 -0.6632  0.0186 -0.2245
 1372WAT     H120115   3.148   1.857   5.905 -0.6096  0.2868 -0.1628
 1372WAT     H220116   3.143   1.742   6.003 -0.1097  0.0288 -0.4362
 1373WAT      O20117   0.789   3.130   6.570 -0.2297  0.3819 -0.8681
 1373WAT     H120118   0.834   3.179   6.501  0.1868 -1.3338 -1.8879
 1373WAT     H220119   0.850   3.060   6.594 -0.2525  1.1024  1.4941
 1374WAT      O20120   4.458   0.455   6.230  0.0678 -0.2789  0.1399
 1374WAT     H120121   4.462   0.361   6.211 -0.8397 -0.2654 -0.1644
 1374WAT     H220122   4.495   0.497   6.152 -1.0247 -0.3317 -0.4216
 1375WAT      O20123   5.190   4.878   7.054  0.7077 -0.5546 -0.1141
 1375WAT     H120124   5.176   4.809   7.119  0.4755 -0.6543 -0.2693
 1375WAT     H220125   5.260   4.931   7.091 -2.2189  1.9912  2.4340
 1376WAT      O20126   3.361   3.331   0.487 -0.0497 -0.2544  0.5115
 1376WAT     H120127   3.353   3.288   0.572  0.7009 -0.1686  0.6342
 1376WAT     H220128   3.450   3.309   0.458 -0.5113 -0.8055 -0.5348
 1377WAT      O20129   2.960   2.825   0.670  0.0699  0.2362  0.1717
 1377WAT     H120130   2.991   2.777   0.747  0.8600 -0.0381 -0.3144
 1377WAT     H220131   2.988   2.915   0.684  1.4638 -0.0833 -0.4520
 1378WAT      O20132   3.884   1.615   1.518  0.1240  0.1367 -0.3165
 1378WAT     H120133   3.906   1.643   1.429  1.1818  1.2751  0.2719
 1378WAT     H220134   3.832   1.687   1.554 -1.1931 -0.7802 -0.3465
 1379WAT      O20135   5.802   1.893   0.691 -0.3155  0.3965 -0.2689
 1379WAT     H120136   5.738   1.839   0.646 -1.6442  3.2535 -2.1183
 1379WAT     H220137   5.864   1.920   0.624  0.8052  0.5028  0.7657
 1380WAT      O20138   4.347   2.669   7.046  0.7727  0.7874  0.5211
 1380WAT     H120139   4.299   2.737   6.998 -1.0954 -1.4922 -1.0408
 1380WAT     H220140   4.281   2.627   7.101  0.8455 -2.2760 -1.5073
 1381WAT      O20141   0.518   1.122   7.144 -0.0869 -0.2963  0.6028
 1381WAT     H120142   0.473   1.055   7.195  0.2023 -0.8839  0.0894
 1381WAT     H220143   0.525   1.086   7.056  2.0745 -0.5792  0.8238
 1382WAT      O20144   5.946   0.251   0.776  0.7169 -0.0662  0.0017
 1382WAT     H120145   5.875   0.268   0.837  0.0955 -2.6788  0.1408
 1382WAT     H220146   6.026   0.267   0.827  0.2822  2.0629  0.0993
 1383WAT      O20147   2.118   3.329   6.453  0.0044  0.6217 -0.3786
 1383WAT     H120148   2.024   3.313   6.459 -0.1321  1.5393 -0.0126
 1383WAT     H220149   2.126   3.405   6.395  0.6395 -0.6252 -1.9957
 1384WAT      O20150   2.508   5.073   0.601  0.2266 -0.0913 -0.3315
 1384WAT     H120151   2.423   5.112   0.582 -0.0588 -1.5061 -2.1292
 1384WAT     H220152   2.554   5.141   0.650 -1.6804  0.9477  0.1150
 1385WAT      O20153   4.114   1.112   6.568 -0.2169  0.3885  0.2561
 1385WAT     H120154   4.043   1.173   6.587  0.8005  1.6783 -0.0037
 1385WAT     H220155   4.179   1.164   6.521 -0.4587 -1.4902 -2.3798
 1386WAT      O20156   4.790   4.006   1.271 -0.0595 -0.2162 -0.3012
 1386WAT     H120157   4.861   4.050   1.318 -0.0337 -1.4237  0.8528
 1386WAT     H220158   4.821   3.916   1.258 -1.3237 -0.7481  0.1450
 1387WAT      O20159   2.301   4.748   1.322 -0.3046 -0.0996  0.1463
 1387WAT     H120160   2.389   4.739   1.357 -0.4415  0.1676  0.5684
 1387WAT     H220161   2.275   4.838   1.345 -0.1357  0.3363 -1.2407
 1388WAT      O20162   5.174   3.700   1.289  0.0904 -0.0924  0.4307
 1388WAT     H120163   5.242   3.638   1.264 -0.4997 -0.5137 -0.1654
 1388WAT     H220164   5.210   3.745   1.366  0.9183 -0.4983  0.2948
 1389WAT      O20165   1.570   1.556   7.412  0.1906  0.0144 -0.4293
 1389WAT     H120166   1.645   1.580   7.358  0.2596 -0.1499 -0.4085
 1389WAT     H220167   1.555   1.463   7.394 -0.3107  0.1588 -0.7943
 1390WAT      O20168   1.904   0.113   7.468  0.0542 -0.0615  0.1311
 1390WAT     H120169   1.853   0.053   7.414 -0.1434 -0.9765  1.2927
 1390WAT     H220170   1.908   0.194   7.417 -0.4170 -0.7766 -1.0783
 1391WAT      O20171   2.538   1.083   7.030  0.2600  0.2177 -0.1420
 1391WAT     H120172   2.552   0.993   7.001  1.9500  0.0646  1.0303
 1391WAT     H220173   2.621   1.110   7.069 -0.3442  2.1435 -0.0522
 1392WAT      O20174   1.948   1.196   0.714 -0.2031  0.0276  0.1109
 1392WAT     H120175   1.963   1.114   0.668  1.0403  0.3777 -0.1480
 1392WAT     H220176   2.030   1.212   0.762  0.2920  1.9787 -1.2393
 1393WAT      O20177   0.135   3.581   6.590 -0.1432  0.3029  0.5987
 1393WAT     H120178   0.129   3.515   6.521  0.5302 -1.2910  1.9850
 1393WAT     H220179   0.082   3.546   6.662  0.8537  0.8633  1.6519
 1394WAT      O20180   1.411   6.163   0.020  0.9014  0.3654  0.5075
 1394WAT     H120181   1.436   6.255   0.026  0.3367  0.4770  1.4159
 1394WAT     H220182   1.321   6.161   0.052  0.4445 -0.3173 -0.7705
 1395WAT      O20183   1.556   1.204   1.010  0.7057 -0.6770 -0.9574
 1395WAT     H120184   1.604   1.238   0.935 -0.4619  0.5323 -1.1908
 1395WAT     H220185   1.615   1.215   1.084  0.2969  2.2177 -0.9564
 1396WAT      O20186   0.876   6.192   6.161 -0.3626 -0.6373 -0.0076
 1396WAT     H120187   0.949   6.205   6.101  0.3602 -1.4856  0.6649
 1396WAT     H220188   0.890   6.257   6.230 -0.2248 -0.8172  0.1347
 1397WAT      O20189   3.065   3.426   0.467  0.0354 -0.2510 -0.9631
 1397WAT     H120190   3.061   3.415   0.372 -1.7486  0.3910 -1.0095
 1397WAT     H220191   3.018   3.350   0.502 -1.9108  0.9528 -0.7815
 1398WAT      O20192   1.508   1.001   0.680 -0.0821 -0.2374  0.1638
 1398WAT     H120193   1.454   1.065   0.726 -1.1226 -0.7902 -0.2600
 1398WAT     H220194   1.566   1.053   0.625 -1.0736  0.3490 -0.3518
 1399WAT      O20195   5.387   5.821   1.935 -0.2299  0.1037 -0.1750
 1399WAT     H120196   5.356   5.892   1.878 -0.5897 -0.0017 -0.1165
 1399WAT     H220197   5.428   5.758   1.875  1.4519  1.0494 -0.0703
 1400WAT      O20198   2.936   4.492   6.177 -0.1477  0.2854  0.5532
 1400WAT     H120199   2.961   4.555   6.245 -3.8067  1.3272  1.1382
 1400WAT     H220200   2.934   4.408   6.223  0.7777  0.3821  0.7993
 1401WAT      O20201   1.287   4.701   7.464 -0.3439 -0.1562  0.0094
 1401WAT     H120202   1.197   4.668   7.464 -1.1224  1.7607  1.9296
 1401WAT     H220203   1.288   4.767   7.394  0.0698 -1.2524 -1.0657
 1402WAT      O20204   1.783   3.038   1.366  0.1144  0.2236  0.0903
 1402WAT     H120205   1.688   3.038   1.377  0.1818  2.7465  1.2030
 1402WAT     H220206   1.800   3.104   1.299  1.0838 -0.6897 -0.6048
 1403WAT      O20207   2.071   0.777   0.795  0.0188  0.0444  0.3885
 1403WAT     H120208   1.995   0.720   0.802  0.2530 -0.4433 -0.7653
 1403WAT     H220209   2.041   0.851   0.741 -0.0475  0.6087  1.1810
 1404WAT      O20210   5.422   5.954   1.475 -0.2471 -0.3767  0.4655
 1404WAT     H120211   5.507   5.965   1.516 -0.2147 -0.4228  0.4109
 1404WAT     H220212   5.367   6.020   1.516  0.3654  1.1310 -1.0251
 1405WAT      O20213   3.898   5.139   1.893 -0.1802  0.3825 -0.5369
 1405WAT     H120214   3.807   5.109   1.887 -0.7785  1.8970  0.2757
 1405WAT     H220215   3.897   5.204   1.964  1.7758 -0.3694  0.2744
 1406WAT      O20216   3.273   1.081   2.364 -0.0120  0.3777  0.2603
 1406WAT     H120217   3.204   1.048   2.306  0.3859  0.0545 -0.0361
 1406WAT     H220218   3.264   1.029   2.444  0.3833 -0.2096 -0.0692
 1407WAT      O20219   4.897   3.745   1.295 -0.0284  0.2825 -0.1904
 1407WAT     H120220   4.989   3.723   1.284 -0.1269  0.4505 -1.4611
 1407WAT     H220221   4.867   3.687   1.365  1.5171  1.6657  1.7329
 1408WAT      O20222   4.277   4.862   5.553 -0.2075  0.3486 -0.9426
 1408WAT     H120223   4.350   4.814   5.513 -0.2161  0.4464 -1.0758
 1408WAT     H220224   4.293   4.856   5.647 -0.7305 -0.7711 -0.9030
 1409WAT      O20225   1.503   2.854   1.630 -0.4330  0.1972  0.0185
 1409WAT     H120226   1.564   2.806   1.686  0.3280  1.5676  0.3978
 1409WAT     H220227   1.438   2.890   1.691 -0.9329 -0.2196 -0.2534
 1410WAT      O20228   1.794   0.794   7.356 -0.2600  0.7125 -0.7319
 1410WAT     H120229   1.829   0.787   7.267 -2.2206 -0.1087 -1.5094
 1410WAT     H220230   1.739   0.872   7.354 -1.4831 -0.1087 -0.7330
 1411WAT      O20231   3.359   4.553   0.846  0.4110 -0.1917 -0.6840
 1411WAT     H120232   3.337   4.613   0.774  0.8218 -0.0964 -0.7314
 1411WAT     H220233   3.286   4.562   0.907  0.2287 -0.0121 -0.9260
 1412WAT      O20234   2.916   0.237   6.834  0.0551  0.2431 -0.3642
 1412WAT     H120235   2.907   0.153   6.788  1.9764 -0.4981  0.5180
 1412WAT     H220236   2.967   0.217   6.912  0.3751  2.2121 -0.0113
 1413WAT      O20237   6.157   1.037   6.196  0.3761  0.0556  0.5652
 1413WAT     H120238   6.160   1.116   6.142  2.0415  0.2819  0.9336
 1413WAT     H220239   6.232   0.985   6.167  1.2398  0.1250  2.5145
 1414WAT      O20240   0.869   5.505   1.532  0.3501 -0.0160 -0.4263
 1414WAT     H120241   0.788   5.473   1.574  1.0089 -1.8064 -0.4566
 1414WAT     H220242   0.913   5.555   1.601  0.2670 -0.9015  0.2829
 1415WAT      O20243   1.202   5.450   5.616  0.1141 -0.6165 -0.9236
 1415WAT     H120244   1.290   5.458   5.581 -0.1577  1.1769 -1.3162
 1415WAT     H220245   1.200   5.511   5.689 -0.4455 -1.5661 -0.1234
 1416WAT      O20246   3.264   1.639   7.785 -0.0125 -0.2073  0.5935
 1416WAT     H120247   3.359   1.639   7.780  0.0164  0.0733  1.1522
 1416WAT     H220248   3.239   1.549   7.763  0.2960  0.0721 -0.9856
 1417WAT      O20249   5.810   5.696   0.957 -0.7800 -0.3986 -0.2733
 1417WAT     H120250   5.795   5.701   1.052  1.4588  1.6489  0.0744
 1417WAT     H220251   5.840   5.606   0.943 -0.3421 -0.5119  1.1422
 1418WAT      O20252   2.420   1.979   1.022  0.1629  0.1688  0.4190
 1418WAT     H120253   2.503   2.019   0.997  0.0109 -1.3534 -3.1589
 1418WAT     H220254   2.446   1.894   1.058  0.2313  1.2046  3.0051
 1419WAT      O20255   3.864   3.452   7.489 -0.1849  0.4750  0.4917
 1419WAT     H120256   3.937   3.514   7.490  0.5198 -0.1507 -2.5039
 1419WAT     H220257   3.801   3.490   7.428 -0.2595 -1.1799 -0.5054
 1420WAT      O20258   0.439   5.241   1.068 -0.4243 -0.1491 -0.0786
 1420WAT     H120259   0.434   5.164   1.011 -0.3710 -0.8012  0.7739
 1420WAT     H220260   0.494   5.213   1.141  0.1952  0.9391 -0.1099
 1421WAT      O20261   5.645   2.707   1.159 -0.4805  0.4332  0.7549
 1421WAT     H120262   5.617   2.795   1.185 -1.8203 -0.3704  2.1812
 1421WAT     H220263   5.584   2.683   1.089 -0.3909  0.4624  0.6663
 1422WAT      O20264   5.422   4.817   0.643  0.7825 -0.5326  0.0023
 1422WAT     H120265   5.497   4.833   0.700  1.7828  1.9454 -1.8506
 1422WAT     H220266   5.365   4.892   0.656 -1.2501 -2.1555  1.0463
 1423WAT      O20267   5.164   1.119   1.512  0.8263  0.0244 -0.7191
 1423WAT     H120268   5.154   1.141   1.605  1.5930  0.2783 -0.6845
 1423WAT     H220269   5.081   1.144   1.472  1.4037  2.4573 -0.5616
 1424WAT      O20270   3.072   3.053   0.832  0.2301 -0.4424  0.0839
 1424WAT     H120271   3.149   2.997   0.820  3.1215  2.5431  2.6047
 1424WAT     H220272   3.026   3.014   0.906  1.3219 -0.4234  0.7986
 1425WAT      O20273   3.047   3.522   5.190 -0.1134  0.7730  0.1256
 1425WAT     H120274   3.010   3.597   5.238 -0.3279  0.6830  0.1055
 1425WAT     H220275   3.098   3.562   5.119  0.1447  0.9056  0.3850
 1426WAT      O20276   5.744   6.190   0.377 -0.1147  0.2378 -0.0342
 1426WAT     H120277   5.718   6.128   0.310 -3.0947  0.8529  0.4298
 1426WAT     H220278   5.802   6.140   0.435 -0.6572 -1.4448 -0.8824
 1427WAT      O20279   5.671   0.583   7.315  0.1922  0.0681 -0.1269
 1427WAT     H120280   5.639   0.528   7.244  1.5354  0.5169 -1.1136
 1427WAT     H220281   5.608   0.570   7.385  1.5005 -4.4441  0.5567
 1428WAT      O20282   2.250   4.373   0.831  0.2138  0.1187  0.3068
 1428WAT     H120283   2.240   4.289   0.785  0.5440  0.5056 -0.5010
 1428WAT     H220284   2.342   4.395   0.820  0.3817  0.0410  1.5062
 1429WAT      O20285   5.504   0.418   6.556 -0.0818  0.0371  0.1097
 1429WAT     H120286   5.599   0.427   6.553 -0.1648  0.7612 -0.9438
 1429WAT     H220287   5.483   0.366   6.478 -0.5941  0.3185  0.0601
 1430WAT      O20288   2.937   0.302   0.248  0.3380 -0.0294 -0.3691
 1430WAT     H120289   2.857   0.309   0.195  0.3384 -1.0064 -0.5095
 1430WAT     H220290   2.961   0.393   0.267 -0.7893  0.2758 -0.3469
 1431WAT      O20291   1.141   4.329   7.448  0.2265 -0.6389  0.3233
 1431WAT     H120292   1.050   4.331   7.417  0.7000 -1.4604 -1.2356
 1431WAT     H220293   1.136   4.292   7.536 -1.0017 -0.1105  0.4944
 1432WAT      O20294   5.278   0.467   7.671  0.3663  0.0923 -0.4588
 1432WAT     H120295   5.237   0.381   7.671 -0.6299  0.5451 -0.0079
 1432WAT     H220296   5.320   0.474   7.756  1.3002 -0.3216 -0.8722
 1433WAT      O20297   3.204   3.174   0.272 -0.0516  1.0876 -0.1691
 1433WAT     H120298   3.249   3.207   0.350  1.5274 -2.9184  0.8801
 1433WAT     H220299   3.112   3.172   0.297  0.5216 -1.2705  2.3150
 1434WAT      O20300   1.137   4.247   7.720  0.1525 -0.0037  0.0947
 1434WAT     H120301   1.168   4.325   7.767  3.2682 -1.2584  0.4088
 1434WAT     H220302   1.068   4.211   7.775 -0.0412  1.5319  0.8924
 1435WAT      O20303   2.623   0.537   6.164  0.0752 -0.3413 -0.2058
 1435WAT     H120304   2.579   0.611   6.122  1.3810  0.5310 -0.0965
 1435WAT     H220305   2.678   0.499   6.095  0.6523 -0.1793  0.1536
 1436WAT      O20306   4.644   0.855   5.935  0.0582 -0.5307  0.2123
 1436WAT     H120307   4.674   0.933   5.982  2.0476 -1.5400  0.7736
 1436WAT     H220308   4.572   0.885   5.881  0.7254  1.6886  0.4513
 1437WAT      O20309   2.912   1.633   1.548  0.0429 -0.2801  0.3090
 1437WAT     H120310   2.914   1.589   1.633 -0.7822 -0.9327 -0.0001
 1437WAT     H220311   2.980   1.589   1.496 -1.3750 -1.8678 -0.3007
 1438WAT      O20312   2.575   1.568   7.848 -0.5687 -0.0091 -0.3859
 1438WAT     H120313   2.585   1.649   7.797 -0.0654  0.5226  0.5350
 1438WAT     H220314   2.483   1.545   7.839 -0.1942 -0.9134 -2.9888
 1439WAT      O20315   4.469   4.275   0.685 -0.4469 -0.0650  0.0716
 1439WAT     H120316   4.529   4.229   0.743 -1.0447 -0.8720  0.0576
 1439WAT     H220317   4.470   4.366   0.717 -0.4445 -0.4092  1.0745
 1440WAT      O20318   0.579   3.353   0.481  0.1760  0.3010 -0.0584
 1440WAT     H120319   0.561   3.263   0.454  1.9043  0.1953 -1.0108
 1440WAT     H220320   0.666   3.371   0.446 -0.5006  2.6585 -0.6732
 1441WAT      O20321   5.002   2.473   1.141 -0.1090 -0.0057  0.7058
 1441WAT     H120322   5.038   2.428   1.064 -1.5735 -1.2473  0.7020
 1441WAT     H220323   5.077   2.487   1.198  0.4509 -2.4563  0.6787
 1442WAT      O20324   1.770   5.678   0.494 -0.1178 -0.6054  0.2536
 1442WAT     H120325   1.772   5.612   0.564 -2.1631  0.6834  1.6542
 1442WAT     H220326   1.852   5.726   0.504  0.3521 -1.4752  0.7054
 1443WAT      O20327   3.150   1.890   6.269  0.1172 -0.5983 -0.0030
 1443WAT     H120328   3.219   1.953   6.290 -0.0351 -0.3845 -0.1430
 1443WAT     H220329   3.140   1.895   6.174 -0.4629 -0.2329  0.0680
 1444WAT      O20330   3.035   1.517   0.586  0.0800 -0.3924  0.1920
 1444WAT     H120331   3.068   1.438   0.545  1.7517  0.6688 -0.5990
 1444WAT     H220332   3.003   1.570   0.513  2.8187  1.3946  0.1493
 1445WAT      O20333   3.654   1.966   1.724  0.1307 -0.4477 -0.7686
 1445WAT     H120334   3.569   1.944   1.762  1.0705 -1.9889  0.5448
 1445WAT     H220335   3.715   1.904   1.763  1.8317  0.4249 -1.9100
 1446WAT      O20336   6.174   2.937   0.525  0.6934 -0.1826 -0.1840
 1446WAT     H120337   6.126   2.854   0.522  2.3353 -1.1803  0.0188
 1446WAT     H220338   6.151   2.981   0.443 -1.3396 -0.1269  0.3522
 1447WAT      O20339   3.477   2.258   0.832  0.1925 -0.0881 -0.4859
 1447WAT     H120340   3.439   2.340   0.802  0.0091 -0.1340 -0.3775
 1447WAT     H220341   3.511   2.277   0.919  1.3782  0.2418 -1.0099
 1448WAT      O20342   2.396   2.313   0.553 -0.0495  0.1094 -0.0361
 1448WAT     H120343   2.337   2.280   0.621  0.1737 -1.3284 -0.5021
 1448WAT     H220344   2.367   2.402   0.537 -0.2199  0.4298  1.8166
 1449WAT      O20345   6.129   3.919   5.771  0.4946 -0.2444  0.2211
 1449WAT     H120346   6.154   3.829   5.790  0.8123  0.0580  1.3194
 1449WAT     H220347   6.055   3.937   5.830 -0.5678 -0.2477 -1.0482
 1450WAT      O20348   5.098   6.164   1.377  0.3012 -0.1938  0.7445
 1450WAT     H120349   5.167   6.183   1.440  1.7487  1.8443 -1.3037
 1450WAT     H220350   5.127   6.084   1.333 -0.8689 -1.8060  2.7361
 1451WAT      O20351   2.661   4.341   0.010  0.3222 -0.0198  0.2837
 1451WAT     H120352   2.581   4.394   0.008 -0.3474 -0.9744  1.0717
 1451WAT     H220353   2.722   4.392   0.063  0.0298  0.4256  0.1992
 1452WAT      O20354   0.549   3.611   0.389 -0.0133  0.0902 -0.3312
 1452WAT     H120355   0.568   3.523   0.421 -0.4152  0.3718  0.7089
 1452WAT     H220356   0.456   3.609   0.367  0.1005  0.1065 -0.8301
 1453WAT      O20357   2.594   2.664   0.943 -0.0468  0.0574 -0.1413
 1453WAT     H120358   2.587   2.608   0.866 -0.2732 -1.1794  0.7495
 1453WAT     H220359   2.682   2.701   0.939 -0.2071  0.3330 -1.2062
 1454WAT      O20360   3.560   5.731   6.410  0.5907 -0.2245  0.5359
 1454WAT     H120361   3.585   5.650   6.367  2.3250  1.2588 -1.4347
 1454WAT     H220362   3.633   5.751   6.469  0.5645  0.3282  0.3826
 1455WAT      O20363   1.678   5.442   1.433  0.1568  0.4898 -0.1603
 1455WAT     H120364   1.731   5.493   1.372 -0.3127  0.2803 -0.7567
 1455WAT     H220365   1.588   5.467   1.411 -0.0058  2.9196  2.5956
 1456WAT      O20366   3.049   1.778   5.538 -0.4844  0.0549 -0.8011
 1456WAT     H120367   3.072   1.685   5.533  0.5974  0.3094 -0.8861
 1456WAT     H220368   2.987   1.791   5.466 -2.9370 -1.1836  0.9700
 1457WAT      O20369   5.804   3.579   6.491 -0.8598  0.1317 -0.1785
 1457WAT     H120370   5.744   3.648   6.463 -0.5953  1.0942  1.4522
 1457WAT     H220371   5.891   3.611   6.467 -0.8574 -0.4395 -0.9512
 1458WAT      O20372   5.831   3.205   7.483  0.0296  0.0632 -0.1230
 1458WAT     H120373   5.852   3.298   7.479  2.3467 -0.4117 -0.3824
 1458WAT     H220374   5.792   3.185   7.399 -0.2849  0.7500 -0.1457
 1459WAT      O20375   3.901   3.740   6.758 -0.5677 -0.1458 -0.2213
 1459WAT     H120376   3.931   3.809   6.817  0.7295 -2.4475  1.9976
 1459WAT     H220377   3.972   3.729   6.695 -0.5000  0.0911 -0.1864
 1460WAT      O20378   5.577   1.962   6.488 -0.0700 -0.3405  0.0147
 1460WAT     H120379   5.583   1.911   6.568  0.4178  0.1718  0.3073
 1460WAT     H220380   5.647   1.929   6.432 -0.2385 -0.5094 -0.1015
 1461WAT      O20381   1.840   0.418   1.207 -0.3201 -0.0063 -0.0491
 1461WAT     H120382   1.758   0.463   1.228 -0.2702 -0.5426  1.3900
 1461WAT     H220383   1.813   0.329   1.184 -0.1650 -0.1390  0.2735
 1462WAT      O20384   3.974   3.680   4.968  0.0183 -0.1813 -0.5650
 1462WAT     H120385   4.042   3.728   5.014 -0.1516  0.2895 -0.7902
 1462WAT     H220386   4.017   3.601   4.935  0.3606 -0.0667 -0.3929
 1463WAT      O20387   1.340   1.575   5.829  0.0648 -0.0997 -0.1089
 1463WAT     H120388   1.354   1.669   5.826 -2.6103  0.4868  1.7407
 1463WAT     H220389   1.396   1.544   5.900  0.2874  0.2617 -0.1281
 1464WAT      O20390   4.703   1.804   6.787  0.0070  0.0962 -0.3986
 1464WAT     H120391   4.736   1.884   6.745 -0.2694  0.8239  0.7211
 1464WAT     H220392   4.729   1.814   6.878 -2.5385  0.3053  0.3779
 1465WAT      O20393   1.714   2.177   1.826  0.2888  0.2762 -0.3915
 1465WAT     H120394   1.730   2.083   1.823  2.5698  0.5362  1.0917
 1465WAT     H220395   1.795   2.216   1.792  0.2794  1.6894  1.0849
 1466WAT      O20396   0.084   0.541   1.071 -0.6165 -0.1661  0.0487
 1466WAT     H120397   0.080   0.456   1.114  0.8169 -0.5351 -0.4638
 1466WAT     H220398   0.070   0.605   1.141 -1.3116 -0.8111  0.5044
 1467WAT      O20399   5.735   3.790   6.263 -0.0461 -0.6238  0.1022
 1467WAT     H120400   5.708   3.881   6.277  1.7348 -0.2843  1.6608
 1467WAT     H220401   5.815   3.797   6.211  1.3816 -1.1079  2.1126
 1468WAT      O20402   5.653   4.691   7.525  0.0561  0.1950  0.5832
 1468WAT     H120403   5.620   4.680   7.614  0.7815 -2.4253  0.6101
 1468WAT     H220404   5.748   4.699   7.535  0.0867  0.4989  0.0802
 1469WAT      O20405   5.334   0.544   6.164  0.0531  0.0241  0.6570
 1469WAT     H120406   5.374   0.564   6.079  0.2950  0.2644  0.8288
 1469WAT     H220407   5.314   0.630   6.202 -2.2189 -0.0580 -0.1717
 1470WAT      O20408   1.063   3.531   0.304  0.4667  0.4885 -0.3449
 1470WAT     H120409   1.104   3.602   0.354 -0.5818 -0.1073  1.4589
 1470WAT     H220410   0.999   3.575   0.248  0.3389  1.0387  0.2235
 1471WAT      O20411   4.457   6.203   0.181  0.7403  0.5322 -0.5818
 1471WAT     H120412   4.384   6.148   0.208  1.5053  0.2834  1.1113
 1471WAT     H220413   4.452   6.205   0.086 -0.4236 -0.9134 -0.5794
 1472WAT      O20414   4.152   4.420   0.967 -0.7133 -0.1289 -0.0444
 1472WAT     H120415   4.176   4.327   0.971 -2.1563 -0.7067 -2.5900
 1472WAT     H220416   4.075   4.426   1.024  1.0940  0.2549  2.5432
 1473WAT      O20417   5.857   5.174   1.536  0.5926  0.3850  0.2860
 1473WAT     H120418   5.906   5.099   1.570 -0.9972 -1.3587 -1.0356
 1473WAT     H220419   5.776   5.174   1.588 -0.3978 -0.2669 -1.1791
 1474WAT      O20420   3.377   4.716   6.892 -0.0312  0.2373  0.2845
 1474WAT     H120421   3.443   4.700   6.960  0.0918  1.8033  0.5616
 1474WAT     H220422   3.358   4.629   6.856  1.0677 -0.4185  1.2345
 1475WAT      O20423   1.885   5.572   7.645  0.1927  0.3942  0.2197
 1475WAT     H120424   1.849   5.643   7.698  0.3264  1.2312 -0.7591
 1475WAT     H220425   1.974   5.561   7.678 -0.5279 -0.8809  1.8659
 1476WAT      O20426   1.224   2.512   6.850  0.3158  0.4725  0.3127
 1476WAT     H120427   1.233   2.534   6.943 -2.2012 -0.6297  0.9264
 1476WAT     H220428   1.146   2.561   6.822 -1.0776 -1.8733 -0.1882
 1477WAT      O20429   3.019   4.367   6.464 -0.2532  0.1834  0.3837
 1477WAT     H120430   2.978   4.282   6.450  0.7418 -0.2939  0.2250
 1477WAT     H220431   3.107   4.357   6.426 -0.1573  1.3115  0.2776
 1478WAT      O20432   2.714   3.239   7.452  0.5195 -0.1791  0.2957
 1478WAT     H120433   2.687   3.322   7.491 -0.2722 -0.3497  0.1413
 1478WAT     H220434   2.803   3.225   7.484 -0.0071 -0.1870  1.8432
 1479WAT      O20435   0.735   5.258   5.632 -0.2578 -0.1650  0.0231
 1479WAT     H120436   0.818   5.305   5.641  0.4252 -0.9355 -1.7359
 1479WAT     H220437   0.668   5.327   5.636  0.5373  0.6155  0.2215
 1480WAT      O20438   0.415   4.406   6.641 -0.3812  0.4800  0.3238
 1480WAT     H120439   0.467   4.482   6.617  0.2498  0.2734  0.9992
 1480WAT     H220440   0.381   4.372   6.558 -1.0702  1.7668  0.0591
 1481WAT      O20441   5.147   0.847   0.345 -0.7097 -0.1343 -0.2097
 1481WAT     H120442   5.217   0.801   0.390  0.8617  2.2642 -0.0365
 1481WAT     H220443   5.169   0.940   0.354 -2.6483  0.6147 -2.1872
 1482WAT      O20444   4.137   3.185   0.557 -0.4183  0.3278  0.2896
 1482WAT     H120445   4.088   3.247   0.503 -0.4144 -1.3603 -1.7914
 1482WAT     H220446   4.137   3.103   0.506 -0.9673 -1.6136  3.1660
 1483WAT      O20447   1.607   6.206   7.082 -0.1289  0.1254  0.4281
 1483WAT     H120448   1.587   6.118   7.049  1.3370  0.0028 -0.1906
 1483WAT     H220449   1.523   6.251   7.081 -0.8937 -1.2250  0.6536
 1484WAT      O20450   6.152   5.753   0.502  0.1533  0.0980  0.3663
 1484WAT     H120451   6.118   5.811   0.434 -0.2635  1.4727  1.6824
 1484WAT     H220452   6.081   5.746   0.565 -0.0157 -2.3499  0.0024
 1485WAT      O20453   4.174   5.380   7.229  0.5505 -0.0618  0.5599
 1485WAT     H120454   4.156   5.304   7.285 -0.7770 -0.1281  0.0707
 1485WAT     H220455   4.152   5.456   7.283  1.5241 -0.0128  0.9179
 1486WAT      O20456   2.413   6.144   6.734 -0.1954  0.2838 -0.2384
 1486WAT     H120457   2.383   6.153   6.643  2.9235  2.7194 -1.2010
 1486WAT     H220458   2.349   6.194   6.785 -0.9081  0.5704 -1.3791
 1487WAT      O20459   1.499   4.070   5.382 -0.1433  0.4360  0.4295
 1487WAT     H120460   1.438   4.100   5.449  0.6038  2.7293  0.1640
 1487WAT     H220461   1.518   4.148   5.330 -0.0775 -1.0752 -1.9924
 1488WAT      O20462   2.133   5.882   6.515  0.5108 -0.0203  0.6360
 1488WAT     H120463   2.092   5.806   6.557 -0.4823  1.8498  3.3409
 1488WAT     H220464   2.064   5.917   6.458 -0.0452  0.4222  1.5566
 1489WAT      O20465   4.108   2.906   6.450 -0.0514  0.2760 -0.5316
 1489WAT     H120466   4.183   2.960   6.425  0.6070 -0.5242 -0.3662
 1489WAT     H220467   4.047   2.913   6.377  1.0925 -0.6825 -1.6472
 1490WAT      O20468   4.582   0.343   0.873 -0.1700  0.4534  0.6408
 1490WAT     H120469   4.657   0.321   0.818  0.2835  0.9066  1.0737
 1490WAT     H220470   4.507   0.343   0.813  0.1235 -0.2919  0.2646
 1491WAT      O20471   1.074   3.007   5.622  0.0453  0.4946 -0.5683
 1491WAT     H120472   1.090   2.970   5.709  0.1881 -1.0407 -1.2283
 1491WAT     H220473   1.144   3.072   5.611  0.9277 -0.3510 -0.1292
 1492WAT      O20474   0.376   4.467   7.134  0.0361 -0.3119 -0.0189
 1492WAT     H120475   0.353   4.518   7.056 -0.4133 -1.5892 -0.7470
 1492WAT     H220476   0.464   4.497   7.157  0.6206 -0.6832 -1.6710
 1493WAT      O20477   3.233   4.379   7.230  0.2183 -0.4468  0.6884
 1493WAT     H120478   3.327   4.375   7.248  0.6278  0.8583 -0.8874
 1493WAT     H220479   3.196   4.306   7.279  2.2820 -1.9916  0.0918
 1494WAT      O20480   1.255   0.474   1.817 -0.2483  0.3985  0.3251
 1494WAT     H120481   1.328   0.523   1.778 -0.4565 -1.5883 -2.9075
 1494WAT     H220482   1.295   0.421   1.885  1.1170  0.3376 -0.4871
 1495WAT      O20483   2.712   3.016   6.460 -0.0594  0.0885  0.3707
 1495WAT     H120484   2.764   3.093   6.480 -0.4025  0.6688 -0.8777
 1495WAT     H220485   2.638   3.049   6.408  0.5479 -1.2216 -1.4587
 1496WAT      O20486   0.845   0.336   6.726 -0.3014  0.0662  0.1438
 1496WAT     H120487   0.878   0.426   6.717  1.8539 -0.4768  1.6418
 1496WAT     H220488   0.770   0.344   6.785 -0.5364  0.9437 -0.2440
 1497WAT      O20489   3.934   0.322   7.058 -0.0547  0.4900 -0.2250
 1497WAT     H120490   4.022   0.304   7.025 -0.1823 -0.2980 -0.1734
 1497WAT     H220491   3.946   0.385   7.128  0.6866 -0.9825  1.0296
 1498WAT      O20492   2.091   4.632   1.403 -0.0311  0.2082 -0.7381
 1498WAT     H120493   2.115   4.542   1.426  0.4441  0.7773  1.1768
 1498WAT     H220494   2.174   4.673   1.379 -0.3886 -0.1025 -2.6636
 1499WAT      O20495   1.357   5.962   0.861 -0.2999  0.9337  0.3256
 1499WAT     H120496   1.428   5.995   0.806  0.0332 -0.4499 -0.1113
 1499WAT     H220497   1.301   6.039   0.876  0.1138  1.5610 -1.1377
 1500WAT      O20498   3.298   1.455   6.470 -0.6246  0.4106 -0.7582
 1500WAT     H120499   3.217   1.496   6.501 -0.9351 -0.5574 -0.2496
 1500WAT     H220500   3.338   1.521   6.414 -1.4479  1.1479 -0.5050
 1501WAT      O20501   4.078   3.604   6.225  1.1371 -0.0807 -0.2280
 1501WAT     H120502   4.017   3.602   6.152 -0.6504  0.7340  1.1585
 1501WAT     H220503   4.164   3.595   6.185  0.0941 -3.8895 -2.1423
 1502WAT      O20504   3.347   6.087   7.936 -0.1894  0.0064 -0.3987
 1502WAT     H120505   3.363   6.172   7.975  1.0321  0.0584 -0.9702
 1502WAT     H220506   3.291   6.042   7.999 -0.2685  0.9657  0.2381
 1503WAT      O20507   4.391   1.088   1.512 -0.3839  0.0848  0.2861
 1503WAT     H120508   4.316   1.146   1.523 -0.5748 -0.0923 -0.0647
 1503WAT     H220509   4.364   1.025   1.445 -1.4258 -2.4751  2.9282
 1504WAT      O20510   4.322   2.119   0.997 -0.1064  0.2772  0.0508
 1504WAT     H120511   4.397   2.161   0.956  0.6220 -0.3622  0.6752
 1504WAT     H220512   4.330   2.027   0.972  0.6567 -0.2387  1.9670
 1505WAT      O20513   5.054   0.576   5.676 -0.6647  0.2934  0.3206
 1505WAT     H120514   5.006   0.558   5.757  0.4098 -0.5548  0.7969
 1505WAT     H220515   5.125   0.634   5.703 -1.6199  1.8698 -0.4493
 1506WAT      O20516   1.369   5.236   0.107 -0.3496 -0.2083 -0.3390
 1506WAT     H120517   1.414   5.297   0.048  0.0285  0.4191  0.5701
 1506WAT     H220518   1.398   5.263   0.195 -0.6109 -1.3546  0.1087
 1507WAT      O20519   5.890   2.348   7.537 -0.2525  0.2542 -0.2110
 1507WAT     H120520   5.939   2.304   7.606 -1.5595 -0.2830  0.4168
 1507WAT     H220521   5.949   2.349   7.462  0.4289 -1.0603  0.2792
 1508WAT      O20522   4.872   6.204   0.313  0.1008 -0.3532  0.0736
 1508WAT     H120523   4.807   6.258   0.358  0.5260 -0.8818  1.3680
 1508WAT     H220524   4.931   6.268   0.273  0.8170  0.2114  1.8939
 1509WAT      O20525   2.885   5.377   2.056  0.1827  0.4127 -0.7407
 1509WAT     H120526   2.907   5.435   2.129 -1.1268 -0.3693  0.3256
 1509WAT     H220527   2.904   5.289   2.090  0.5862  0.1062 -1.7422
 1510WAT      O20528   5.676   2.470   0.676 -0.1900 -0.1502 -0.3162
 1510WAT     H120529   5.688   2.563   0.695 -1.5768 -0.2079  1.0356
 1510WAT     H220530   5.592   2.465   0.630  0.6012 -0.6017 -1.7795
 1511WAT      O20531   2.722   5.826   7.110  0.6064  0.2388 -0.5846
 1511WAT     H120532   2.628   5.812   7.120  0.5067  0.5240 -1.0956
 1511WAT     H220533   2.746   5.776   7.032  1.0134 -0.3986 -0.0654
 1512WAT      O20534   5.852   5.355   6.298  0.5771 -1.0688 -0.2381
 1512WAT     H120535   5.865   5.295   6.224 -0.0845 -1.4056 -0.0872
 1512WAT     H220536   5.781   5.413   6.270  0.1011 -1.4058  0.2591
 1513WAT      O20537   0.063   0.678   0.239  0.1421 -0.2218 -0.2115
 1513WAT     H120538  -0.021   0.642   0.213  1.2840 -1.9754 -1.6683
 1513WAT     H220539   0.106   0.703   0.157  0.8382  1.2274  0.5343
 1514WAT      O20540   3.069   2.743   1.515  0.5060  0.1163 -0.3056
 1514WAT     H120541   3.153   2.700   1.502  0.8150  1.2336 -2.7226
 1514WAT     H220542   3.005   2.684   1.475 -0.1005 -1.2038  2.3895
 1515WAT      O20543   2.088   2.358   1.151  0.4111  0.3924  0.0712
 1515WAT     H120544   2.136   2.278   1.132  0.9144  1.3026 -3.0517
 1515WAT     H220545   1.996   2.334   1.142  0.4853 -0.1211  0.6066
 1516WAT      O20546   4.446   0.124   6.739  0.1702  0.1311  0.2392
 1516WAT     H120547   4.460   0.217   6.724  1.1775 -0.0493  0.0210
 1516WAT     H220548   4.485   0.108   6.825  0.5853 -0.2166 -0.0122
 1517WAT      O20549   0.774   3.422   0.882 -0.2398 -0.0357 -0.0190
 1517WAT     H120550   0.679   3.426   0.874 -0.2407  2.3287  0.5383
 1517WAT     H220551   0.796   3.491   0.944  1.8371 -0.7209  0.0806
 1518WAT      O20552   1.707   2.466   0.451 -0.0088 -0.2520  0.6787
 1518WAT     H120553   1.763   2.514   0.512 -1.1515 -0.2636  1.7722
 1518WAT     H220554   1.723   2.374   0.471  0.8099 -0.2978 -0.1540
 1519WAT      O20555   0.199   1.890   0.635 -0.2884 -0.0805  0.3528
 1519WAT     H120556   0.136   1.937   0.691  1.5845  0.2858  2.2786
 1519WAT     H220557   0.259   1.958   0.604 -1.0994 -0.3407 -1.9373
 1520WAT      O20558   4.171   1.705   5.834 -0.6824  0.0029 -0.1939
 1520WAT     H120559   4.240   1.748   5.784  0.0835 -0.4820  0.4193
 1520WAT     H220560   4.166   1.616   5.799 -1.5836  0.2751 -0.7948
 1521WAT      O20561   3.592   6.112   1.003 -0.2001  0.5269 -0.1750
 1521WAT     H120562   3.566   6.042   0.943  0.6169  0.5067 -0.5105
 1521WAT     H220563   3.512   6.131   1.053 -0.3381 -0.9264  0.2054
 1522WAT      O20564   2.575   5.005   7.299  0.3246 -0.0285 -0.3138
 1522WAT     H120565   2.522   5.032   7.224 -0.5732  0.6050  0.5197
 1522WAT     H220566   2.551   5.067   7.369  1.9141  0.0509  0.1916
 1523WAT      O20567   3.188   2.101   0.356 -0.3289 -1.0523 -0.2171
 1523WAT     H120568   3.110   2.136   0.314 -1.2173 -1.2280  1.2124
 1523WAT     H220569   3.172   2.113   0.450  2.0875  0.4824  0.0928
 1524WAT      O20570   0.948   4.919   6.665 -0.5425 -0.4155 -0.5903
 1524WAT     H120571   0.866   4.876   6.691 -0.3496 -1.1797 -1.2196
 1524WAT     H220572   0.939   4.932   6.571 -0.8386  1.4745 -0.3419
 1525WAT      O20573   1.125   0.829   7.185  0.1592 -0.1038 -0.2933
 1525WAT     H120574   1.173   0.898   7.140  2.0368 -1.6198 -0.7626
 1525WAT     H220575   1.162   0.829   7.274 -0.2897 -0.0961 -0.1038
 1526WAT      O20576   3.054   0.789   6.827  0.3772 -0.1685  0.5604
 1526WAT     H120577   3.074   0.728   6.899 -0.4961 -0.7356  0.3407
 1526WAT     H220578   3.062   0.736   6.748  1.5538  0.5078  0.1973
 1527WAT      O20579   4.593   4.173   0.445 -0.5113 -0.0648  0.2011
 1527WAT     H120580   4.533   4.209   0.510  0.0554  0.8063  0.2611
 1527WAT     H220581   4.657   4.123   0.495 -0.2732  0.3223  0.2850
 1528WAT      O20582   3.993   1.473   0.648  0.0895  0.2728 -0.0286
 1528WAT     H120583   3.921   1.416   0.620 -0.0913  1.0711 -1.2774
 1528WAT     H220584   4.032   1.428   0.723  0.4469 -1.8912 -1.4362
 1529WAT      O20585   1.377   5.131   6.180  0.0157  0.6486  0.3656
 1529WAT     H120586   1.336   5.201   6.231 -0.8974  0.0281  0.5211
 1529WAT     H220587   1.323   5.123   6.102  0.5045  0.5595  0.0302
 1530WAT      O20588   2.506   2.879   7.411  0.6617 -0.6242  0.1383
 1530WAT     H120589   2.544   2.920   7.489  0.6844 -1.1069  0.3842
 1530WAT     H220590   2.551   2.920   7.337  1.0246 -0.5527  0.4012
 1531WAT      O20591   2.463   0.011   7.798  0.8997 -0.2522  0.0734
 1531WAT     H120592   2.539  -0.043   7.820 -0.7956 -2.7709  0.1536
 1531WAT     H220593   2.392  -0.024   7.852 -0.4280  1.8308 -0.1852
 1532WAT      O20594   3.038   3.796   7.379 -0.8409 -0.1339  0.2133
 1532WAT     H120595   2.984   3.733   7.427 -1.8664 -0.7420 -1.6513
 1532WAT     H220596   2.992   3.879   7.390 -1.2544 -0.3315  0.0087
 1533WAT      O20597   2.447   5.883   0.087  0.1135 -0.0759  0.0827
 1533WAT     H120598   2.363   5.851   0.120 -0.9203  0.9493 -1.4540
 1533WAT     H220599   2.482   5.810   0.035  0.3061 -0.5796  0.8963
 1534WAT      O20600   2.748   1.912   0.304 -0.2737  0.6371  0.6560
 1534WAT     H120601   2.759   1.817   0.305 -0.2552  0.6384  0.5531
 1534WAT     H220602   2.680   1.928   0.238 -0.8700  0.6373  1.2623
 1535WAT      O20603   5.673   0.865   7.210  0.0441  0.6305  0.2671
 1535WAT     H120604   5.688   0.771   7.223 -1.9238  0.2541  0.1177
 1535WAT     H220605   5.618   0.870   7.132  0.8515  1.9906 -0.2468
 1536WAT      O20606   4.263   5.832   6.990 -0.4702 -0.2818  0.0567
 1536WAT     H120607   4.275   5.913   7.039  0.7858 -1.0133  1.0219
 1536WAT     H220608   4.190   5.789   7.032 -0.9433  0.1920 -0.2643
 1537WAT      O20609   3.063   3.073   7.297  0.2154 -0.2292 -0.3767
 1537WAT     H120610   3.000   3.001   7.302 -0.0442 -0.0240 -0.5975
 1537WAT     H220611   3.018   3.147   7.338 -0.1828  0.2520 -1.6163
 1538WAT      O20612   6.125   3.951   0.859 -0.4897 -0.0859 -0.7889
 1538WAT     H120613   6.141   3.980   0.948 -1.2206  0.9250 -0.9719
 1538WAT     H220614   6.189   3.881   0.844 -0.0298  0.0837  0.3432
 1539WAT      O20615   3.321   4.546   2.397  0.0633  0.5921 -0.1258
 1539WAT     H120616   3.230   4.561   2.424 -0.3600  1.0501 -1.6654
 1539WAT     H220617   3.331   4.451   2.400 -0.0142  0.6164  1.3840
 1540WAT      O20618   2.984   5.262   0.985  0.2655  0.2073 -0.0101
 1540WAT     H120619   2.950   5.349   1.008  1.3669  0.5039  0.5625
 1540WAT     H220620   3.048   5.279   0.916  0.0746 -0.2205 -0.2946
 1541WAT      O20621   4.663   0.976   6.474  0.0384  0.2535 -0.5219
 1541WAT     H120622   4.717   1.035   6.526  0.6267 -0.3577 -0.4154
 1541WAT     H220623   4.573   0.993   6.502 -0.0124  2.3361 -1.7408
 1542WAT      O20624   4.967   3.921   0.578 -0.4081  0.1094 -0.3230
 1542WAT     H120625   4.989   3.935   0.670 -3.0019 -0.6042  0.4644
 1542WAT     H220626   5.047   3.886   0.540  0.9231  0.9992  1.4845
 1543WAT      O20627   1.158   3.148   6.377  0.3091  0.3126 -0.0399
 1543WAT     H120628   1.245   3.187   6.375  0.8784 -0.8835  0.1120
 1543WAT     H220629   1.108   3.202   6.437  0.6701  1.5513 -0.8164
 1544WAT      O20630   3.720   2.192   6.112  0.7150 -0.1482  0.2797
 1544WAT     H120631   3.671   2.111   6.127  1.1093 -0.3853  0.3195
 1544WAT     H220632   3.674   2.258   6.163  0.1876 -0.2698 -0.0230
 1545WAT      O20633   4.014   1.687   1.275 -0.4893 -0.9104  0.4160
 1545WAT     H120634   4.094   1.635   1.278 -1.1404 -2.0999 -1.3722
 1545WAT     H220635   4.043   1.774   1.247  0.1110 -1.6194 -1.3271
 1546WAT      O20636   0.996   0.734   7.736  0.0640  0.1921 -0.5025
 1546WAT     H120637   0.986   0.823   7.771  1.5689 -0.2144  1.1322
 1546WAT     H220638   0.912   0.692   7.753  0.2973  0.4330  1.5357
 1547WAT      O20639   0.895   0.953   7.436  0.0656  0.2974 -0.5181
 1547WAT     H120640   0.954   0.913   7.372  0.5675 -0.9674  0.6815
 1547WAT     H220641   0.907   1.047   7.424  2.3176  0.0843 -0.3508
 1548WAT      O20642   1.763   4.785   6.921  0.2627  0.0093  0.4411
 1548WAT     H120643   1.823   4.853   6.891 -0.1077 -0.0525 -0.4795
 1548WAT     H220644   1.808   4.744   6.995  0.6476  1.0126  0.7778
 1549WAT      O20645   3.081   3.892   7.919 -0.3818  0.3292 -0.3028
 1549WAT     H120646   3.122   3.834   7.982 -2.1909 -0.4522  0.1950
 1549WAT     H220647   3.077   3.841   7.838  1.0340  0.9838 -0.8319
 1550WAT      O20648   2.535   2.055   6.830 -0.0606 -0.1397  0.3931
 1550WAT     H120649   2.597   2.056   6.757  1.2541  0.4527  1.4713
 1550WAT     H220650   2.507   1.964   6.836  2.0095 -0.7975  0.8963
 1551WAT      O20651   5.133   4.726   6.800  0.4166  0.7706 -0.6746
 1551WAT     H120652   5.221   4.696   6.777  0.5440  0.6417 -0.0175
 1551WAT     H220653   5.141   4.761   6.888 -0.8359 -2.2290  0.7652
 1552WAT      O20654   2.721   0.104   0.887 -0.1430 -0.0069 -0.0591
 1552WAT     H120655   2.711   0.183   0.836 -0.5001 -0.5382 -0.8304
 1552WAT     H220656   2.697   0.129   0.976 -0.6513  0.6411 -0.3750
 1553WAT      O20657   0.743   3.210   7.691  0.1406 -0.3686  0.5684
 1553WAT     H120658   0.661   3.202   7.643 -0.0876 -0.9005  1.0255
 1553WAT     H220659   0.716   3.208   7.783  0.4163  2.0884  0.7676
 1554WAT      O20660   5.204   0.552   0.743  0.1593 -0.1671 -0.2114
 1554WAT     H120661   5.206   0.509   0.828  2.9273 -0.7826 -0.4934
 1554WAT     H220662   5.248   0.636   0.758 -3.1538  1.7271 -0.1736
 1555WAT      O20663   3.064   3.303   6.722  0.3044  0.3228 -0.0034
 1555WAT     H120664   3.016   3.324   6.643 -1.0306  2.4460  1.2831
 1555WAT     H220665   3.121   3.378   6.737 -1.0595  1.0262  2.1610
 1556WAT      O20666   3.431   3.231   7.211 -0.7711 -0.1157 -0.2601
 1556WAT     H120667   3.526   3.222   7.207 -0.8035 -2.1754  1.8923
 1556WAT     H220668   3.398   3.142   7.223 -2.8615  0.7173  0.7166
 1557WAT      O20669   1.015   3.671   0.023 -1.1463  0.7497 -0.0623
 1557WAT     H120670   1.077   3.625  -0.034 -3.0038 -0.7850 -0.9753
 1557WAT     H220671   1.044   3.762   0.022  0.7300  0.1900 -0.9066
 1558WAT      O20672   0.801   2.474   1.055  0.6087  0.8880 -0.1206
 1558WAT     H120673   0.801   2.567   1.033 -0.0140  0.7302 -0.8284
 1558WAT     H220674   0.716   2.458   1.095  0.2512  0.4057 -1.0311
 1559WAT      O20675   0.430   5.030   6.889  0.5477  0.5501  0.0460
 1559WAT     H120676   0.509   4.990   6.923 -1.2297 -2.4392  1.0771
 1559WAT     H220677   0.419   4.992   6.802  0.8831  1.9629 -0.6398
 1560WAT      O20678   1.514   2.887   7.730  0.0582 -0.4690  0.1717
 1560WAT     H120679   1.539   2.962   7.782  0.7326 -1.7711  1.8059
 1560WAT     H220680   1.448   2.921   7.669 -1.7523  0.8829  2.7132
 1561WAT      O20681   3.236   4.364   6.679 -0.3142  0.7194 -0.1961
 1561WAT     H120682   3.162   4.308   6.656  0.0150  0.0878  0.2779
 1561WAT     H220683   3.207   4.452   6.655 -0.9990  0.4087 -0.5395
 1562WAT      O20684   5.567   5.988   0.695 -0.0231  0.1197 -0.2915
 1562WAT     H120685   5.478   5.987   0.659 -0.4103  0.4103  0.6425
 1562WAT     H220686   5.586   5.896   0.712 -0.0285  0.0267 -0.7621
 1563WAT      O20687   1.275   0.479   7.395  0.5644 -0.4118 -0.1922
 1563WAT     H120688   1.319   0.451   7.475 -1.2644 -0.9321  0.6920
 1563WAT     H220689   1.199   0.528   7.426  1.0958  1.4593 -1.6628
 1564WAT      O20690   3.807   4.132   6.185 -0.3532  0.1727  0.4117
 1564WAT     H120691   3.722   4.163   6.156 -0.2439  0.3029  0.2298
 1564WAT     H220692   3.836   4.073   6.115  0.3412  1.2327 -0.2091
 1565WAT      O20693   0.170   6.229   0.108 -0.1856  0.6801 -0.6588
 1565WAT     H120694   0.135   6.170   0.041  0.0160  0.6866 -0.7704
 1565WAT     H220695   0.100   6.234   0.174  0.2637 -0.6750 -0.0385
 1566WAT      O20696   0.758   5.228   7.029  0.1730  0.1569  0.0264
 1566WAT     H120697   0.718   5.314   7.015 -0.5284 -0.1570  0.0442
 1566WAT     H220698   0.794   5.204   6.944 -0.6149 -0.0163 -0.2680
 1567WAT      O20699   0.458   1.874   1.597 -0.9865  0.2735 -0.1204
 1567WAT     H120700   0.434   1.887   1.689 -1.7382  1.2481 -0.4410
 1567WAT     H220701   0.541   1.826   1.601 -1.2033 -0.0369  1.0606
 1568WAT      O20702   4.562   0.886   0.101 -0.0950 -0.0237 -0.4303
 1568WAT     H120703   4.559   0.904   0.007  0.9509  0.9132 -0.3042
 1568WAT     H220704   4.641   0.835   0.113 -0.6718 -0.8722 -0.1542
 1569WAT      O20705   5.115   5.814   0.964  0.4359 -0.4078 -0.1202
 1569WAT     H120706   5.085   5.831   0.874  0.8575  0.7480 -0.0616
 1569WAT     H220707   5.206   5.787   0.955 -0.0756 -2.2802 -0.1671
 1570WAT      O20708   2.549   3.259   7.230  0.5815 -0.2834 -0.1821
 1570WAT     H120709   2.611   3.272   7.301 -0.0778 -0.0774  0.3622
 1570WAT     H220710   2.464   3.283   7.267  0.5913  2.9914 -1.9186
 1571WAT      O20711   3.735   3.415   7.843  0.4431 -0.5012  0.8377
 1571WAT     H120712   3.777   3.496   7.871 -2.0581  0.7940  1.0745
 1571WAT     H220713   3.733   3.420   7.747 -1.0605  0.4950  0.8960
 1572WAT      O20714   4.532   5.306   0.941 -0.2157  0.2598  0.2516
 1572WAT     H120715   4.556   5.391   0.904  2.0067 -0.7674 -0.8525
 1572WAT     H220716   4.471   5.269   0.877 -0.0470  0.4225 -0.0073
 1573WAT      O20717   1.570   3.123   0.669 -0.3290 -0.3055 -0.4669
 1573WAT     H120718   1.506   3.088   0.731 -0.7631  1.0253 -0.1206
 1573WAT     H220719   1.544   3.215   0.658  3.7822  1.5173  2.6948
 1574WAT      O20720   6.202   1.972   7.030  0.0720 -0.3734 -0.0268
 1574WAT     H120721   6.255   1.947   7.106 -0.9643 -3.1792 -0.0951
 1574WAT     H220722   6.129   2.021   7.067  0.0270 -0.9740  0.7097
 1575WAT      O20723   0.890   2.624   5.570 -0.0750  0.6368  0.3613
 1575WAT     H120724   0.903   2.663   5.657  3.0478  1.8484 -0.5371
 1575WAT     H220725   0.915   2.532   5.582 -2.7938 -0.0847  1.3651
 1576WAT      O20726   6.145   5.097   6.696  0.7960 -0.2975 -0.2234
 1576WAT     H120727   6.188   5.016   6.722 -1.6539 -1.7644 -0.3829
 1576WAT     H220728   6.098   5.126   6.775  1.1570  0.6352 -0.3405
 1577WAT      O20729   6.102   2.505   7.790 -0.1054 -0.7157  0.0649
 1577WAT     H120730   6.082   2.580   7.846 -0.1119 -1.0386  0.5029
 1577WAT     H220731   6.187   2.526   7.751 -1.3046  0.7498 -1.9451
 1578WAT      O20732   6.035   0.403   5.443 -0.0969 -0.1827 -0.1157
 1578WAT     H120733   6.123   0.432   5.419  0.3146 -0.2858  1.1765
 1578WAT     H220734   5.977   0.453   5.386  0.7273  1.1687  0.1892
 1579WAT      O20735   0.346   0.508   6.146  0.6003 -0.2439  0.0638
 1579WAT     H120736   0.387   0.580   6.193  5.7271 -1.8254 -1.2502
 1579WAT     H220737   0.373   0.521   6.055 -1.0050 -2.1624 -0.7557
 1580WAT      O20738   2.062   0.972   7.563  0.1080 -0.3087 -0.7100
 1580WAT     H120739   2.030   0.991   7.475  0.3341 -0.8151 -0.9016
 1580WAT     H220740   1.986   0.986   7.619  0.5776  2.5992 -0.6376
 1581WAT      O20741   4.061   5.989   7.313 -0.5522  0.1471  0.0195
 1581WAT     H120742   3.972   5.964   7.337 -0.8621 -0.4164 -1.6072
 1581WAT     H220743   4.087   5.926   7.246 -0.1282  2.2094 -1.8663
 1582WAT      O20744   1.649   4.092   1.538 -0.0101  0.1246 -0.0964
 1582WAT     H120745   1.736   4.075   1.576 -0.0208 -2.0069 -0.8504
 1582WAT     H220746   1.598   4.015   1.563 -1.4606  0.9745 -0.3690
 1583WAT      O20747   5.991   5.979   7.284  0.0705  0.3659 -0.0611
 1583WAT     H120748   6.086   5.991   7.284  0.5383 -2.1305  2.8653
 1583WAT     H220749   5.976   5.906   7.223  0.5800 -1.6253  2.0692
 1584WAT      O20750   3.515   3.363   1.654 -0.2372 -0.2791 -0.4607
 1584WAT     H120751   3.462   3.296   1.611  0.4048 -0.5077 -0.9257
 1584WAT     H220752   3.487   3.362   1.745 -1.2665 -0.1472 -0.7700
 1585WAT      O20753   3.949   4.747   0.711 -0.3811  0.1916 -0.5938
 1585WAT     H120754   4.037   4.718   0.735 -0.5161 -0.4008 -0.8123
 1585WAT     H220755   3.928   4.700   0.631 -1.3754 -0.6056  0.1078
 1586WAT      O20756   4.798   1.513   0.128 -0.0616  0.1261  0.0426
 1586WAT     H120757   4.802   1.517   0.224  0.8392 -0.3413  0.0351
 1586WAT     H220758   4.785   1.421   0.108  2.6536 -0.2786 -0.3248
 1587WAT      O20759   0.294   2.739   1.244 -0.3166 -0.3496  0.2440
 1587WAT     H120760   0.232   2.697   1.302 -1.9020 -0.2376 -1.2982
 1587WAT     H220761   0.285   2.693   1.160  0.8073  0.4558 -0.3606
 1588WAT      O20762   2.016   3.288   1.438  0.0077  0.1479  0.4583
 1588WAT     H120763   2.073   3.214   1.456  0.0294  0.0019 -0.1661
 1588WAT     H220764   2.066   3.365   1.466  0.5673  0.0297 -0.1801
 1589WAT      O20765   5.739   3.915   0.102  0.5280  0.3152  0.3631
 1589WAT     H120766   5.822   3.915   0.056  0.0875  0.3246 -0.4531
 1589WAT     H220767   5.673   3.903   0.034 -0.1699  0.7195  0.9374
 1590WAT      O20768   5.864   2.615   6.719 -0.2509  0.7316  0.1723
 1590WAT     H120769   5.805   2.546   6.692  1.3915 -0.6994 -0.0211
 1590WAT     H220770   5.915   2.577   6.790  1.1002  1.4976 -0.3342
 1591WAT      O20771   4.868   3.887   7.939  0.0914  0.2011 -0.2143
 1591WAT     H120772   4.957   3.892   7.972  0.3533  1.4158 -1.0405
 1591WAT     H220773   4.823   3.962   7.979 -0.3869 -0.0461 -0.2787
 1592WAT      O20774   3.047   5.060   0.069 -0.1316  0.7315  0.5752
 1592WAT     H120775   3.107   5.050  -0.004 -2.9528  2.2202 -2.1776
 1592WAT     H220776   3.038   4.971   0.105 -0.2385 -0.4904 -2.2567
 1593WAT      O20777   4.408   0.901   1.723  0.2719 -0.2793  0.0017
 1593WAT     H120778   4.499   0.872   1.731  0.9834  1.5047 -1.2599
 1593WAT     H220779   4.409   0.968   1.656 -1.7075  0.9706  1.1133
 1594WAT      O20780   1.258   3.825   0.135  0.3279 -0.4249  0.3651
 1594WAT     H120781   1.331   3.841   0.195 -0.4302  0.3607  1.1158
 1594WAT     H220782   1.180   3.839   0.189 -0.3993  1.0488 -0.9758
 1595WAT      O20783   0.663   0.957   1.645 -0.7514  0.0586  0.6485
 1595WAT     H120784   0.613   0.981   1.567 -0.3433 -0.0499  0.3481
 1595WAT     H220785   0.678   1.040   1.690 -1.0318  0.1156  0.6397
 1596WAT      O20786   2.120   4.153   1.534  0.1939  0.3105 -0.3052
 1596WAT     H120787   2.156   4.233   1.498  0.5516 -0.7665 -2.4961
 1596WAT     H220788   2.029   4.174   1.555  0.8245  1.8129  1.1090
 1597WAT      O20789   1.784   4.231   6.362  0.2330  0.0483 -0.2238
 1597WAT     H120790   1.724   4.295   6.402  0.8513  2.6894 -3.1032
 1597WAT     H220791   1.744   4.211   6.278  0.8109 -2.3506  0.0254
 1598WAT      O20792   3.363   5.992   7.184  0.0447 -0.2314 -0.0185
 1598WAT     H120793   3.422   6.000   7.109 -0.1024 -1.2306 -0.2623
 1598WAT     H220794   3.387   6.064   7.242  1.4423 -0.5717 -0.1493
 1599WAT      O20795   0.937   5.264   7.472 -0.2299 -0.6232 -0.0585
 1599WAT     H120796   0.849   5.298   7.489 -1.1221 -3.3917  1.4040
 1599WAT     H220797   0.988   5.291   7.548  0.3004  1.0947 -0.9667
 1600WAT      O20798   0.004   5.453   6.561  0.4680  0.0021  0.1937
 1600WAT     H120799  -0.026   5.539   6.589  0.3415 -0.3001  0.9995
 1600WAT     H220800   0.030   5.409   6.642  2.1004 -0.1199 -0.3610
 1601WAT      O20801   3.113   0.773   6.316  0.0896 -0.2436  0.0232
 1601WAT     H120802   3.199   0.735   6.297 -1.1167 -2.9493 -0.5770
 1601WAT     H220803   3.066   0.703   6.360 -1.5866  1.4588  1.0623
 1602WAT      O20804   2.941   3.301   7.065  0.1900  0.2868 -0.1703
 1602WAT     H120805   2.893   3.295   6.982 -0.4708  1.8147  0.0764
 1602WAT     H220806   2.994   3.221   7.067  0.0949  0.1234 -1.9806
 1603WAT      O20807   6.014   2.398   5.563 -0.2445 -0.0336  0.1632
 1603WAT     H120808   5.934   2.421   5.516 -1.7263 -2.0820  1.5379
 1603WAT     H220809   6.037   2.310   5.532  0.2579 -0.3335  1.3209
 1604WAT      O20810   6.126   6.028   6.839 -0.1669 -0.5718 -0.1726
 1604WAT     H120811   6.204   6.018   6.785  0.1686 -2.7814  0.6177
 1604WAT     H220812   6.103   6.121   6.832  3.1759  0.4255  0.4348
 1605WAT      O20813   4.940   2.110   6.522  0.1383  0.4096  0.4665
 1605WAT     H120814   4.923   2.032   6.468 -1.0581 -0.1813  1.6357
 1605WAT     H220815   4.897   2.091   6.605  0.7981  1.8671  1.1674
 1606WAT      O20816   4.261   3.370   5.655 -0.2960  0.2416 -0.4851
 1606WAT     H120817   4.215   3.311   5.595  0.9216 -1.0232 -0.2178
 1606WAT     H220818   4.276   3.317   5.733 -1.8398  1.8448  0.9976
 1607WAT      O20819   5.266   1.887   6.478  0.7042  0.5011  0.6386
 1607WAT     H120820   5.283   1.901   6.571 -2.2448 -0.7904  1.5051
 1607WAT     H220821   5.250   1.975   6.443  1.5944  0.9740  1.3688
 1608WAT      O20822   1.823   1.446   6.908 -0.3315 -0.1541 -0.5897
 1608WAT     H120823   1.842   1.360   6.871  0.3512 -0.1346 -0.3067
 1608WAT     H220824   1.902   1.497   6.891 -0.5050  0.2389 -0.2413
 1609WAT      O20825   0.681   2.079   6.963  0.2246 -0.0547  0.1978
 1609WAT     H120826   0.761   2.131   6.968  0.4207 -0.3863  0.5288
 1609WAT     H220827   0.679   2.029   7.045 -0.7868  0.6306  0.6269
 1610WAT      O20828   0.670   4.588   6.260  0.0581 -0.1146 -0.0431
 1610WAT     H120829   0.630   4.670   6.286 -1.8701 -0.5015 -1.5605
 1610WAT     H220830   0.664   4.587   6.164 -0.3188 -2.1601 -0.0560
 1611WAT      O20831   5.473   4.822   6.490  0.4706  0.6656 -0.1089
 1611WAT     H120832   5.443   4.887   6.554 -0.6480  0.9135 -0.8419
 1611WAT     H220833   5.552   4.785   6.528  1.7264  3.1316 -0.0947
 1612WAT      O20834   1.192   4.715   0.767 -0.3967 -0.4244 -0.2063
 1612WAT     H120835   1.129   4.658   0.811  0.5020 -0.5816  0.9146
 1612WAT     H220836   1.213   4.670   0.685 -0.7959 -0.9652 -0.0155
 1613WAT      O20837   1.741   3.279   1.164 -0.4397 -0.7634 -0.3534
 1613WAT     H120838   1.798   3.329   1.106  0.3716 -1.6623 -0.3451
 1613WAT     H220839   1.660   3.268   1.113 -0.2174 -0.4298 -0.7933
 1614WAT      O20840   0.355   5.952   5.417 -0.7321 -0.5438 -0.6715
 1614WAT     H120841   0.364   5.903   5.335  1.9364 -0.1571 -0.7107
 1614WAT     H220842   0.373   6.043   5.393  4.6074 -0.8663  0.7560
 1615WAT      O20843   2.732   0.736   7.148 -0.2395 -0.0338  0.3839
 1615WAT     H120844   2.740   0.647   7.114  0.4924  0.0472  0.3365
 1615WAT     H220845   2.814   0.751   7.194 -0.6958  0.3233  1.0951
 1616WAT      O20846   1.377   1.766   7.627 -0.0400  0.5129  0.0610
 1616WAT     H120847   1.326   1.720   7.560  0.0012  1.3198 -0.5402
 1616WAT     H220848   1.466   1.770   7.593  0.8024 -2.0411  1.6852
 1617WAT      O20849   6.161   3.024   7.596 -0.0702  0.4112 -0.2783
 1617WAT     H120850   6.249   2.994   7.618 -0.4228 -2.1075 -1.8243
 1617WAT     H220851   6.170   3.065   7.510 -0.3070  0.7873 -0.1281
 1618WAT      O20852   1.928   2.500   7.024  0.1806 -0.7193  0.4340
 1618WAT     H120853   2.006   2.488   7.079  0.0090  0.4808  0.9906
 1618WAT     H220854   1.918   2.596   7.018  0.0516 -0.8271 -1.5143
 1619WAT      O20855   0.144   5.895   2.359  0.3845 -0.5041  0.3038
 1619WAT     H120856   0.189   5.902   2.275  1.0301 -1.0744  0.5938
 1619WAT     H220857   0.073   5.834   2.343 -1.0662  1.2829 -0.4646
 1620WAT      O20858   1.722   5.465   7.272 -0.4359 -0.3972 -0.6563
 1620WAT     H120859   1.657   5.521   7.315 -2.0715 -1.3288 -1.8144
 1620WAT     H220860   1.763   5.521   7.206 -1.1033 -0.2144 -0.9155
 1621WAT      O20861   5.165   2.980   6.832 -0.4767  0.5720 -0.0466
 1621WAT     H120862   5.108   3.026   6.770 -0.3723  0.7250 -0.0297
 1621WAT     H220863   5.119   2.985   6.915 -0.4135  0.7460 -0.0204
 1622WAT      O20864   5.872   4.442   0.901 -0.1254 -0.5823 -0.6689
 1622WAT     H120865   5.777   4.445   0.895 -0.1842  3.2824 -0.0388
 1622WAT     H220866   5.890   4.446   0.995  0.5426  2.1540 -0.8290
 1623WAT      O20867   0.912   2.723   7.139  0.2094  0.1179  0.5916
 1623WAT     H120868   0.905   2.655   7.206 -0.2464 -1.6580 -1.1510
 1623WAT     H220869   0.835   2.711   7.084 -0.2827  2.5768  0.6339
 1624WAT      O20870   1.044   1.282   0.818  0.8707  0.5540 -0.4451
 1624WAT     H120871   1.129   1.240   0.827  0.5269  0.0100  0.4621
 1624WAT     H220872   1.039   1.307   0.726  0.7321 -2.2621 -1.3253
 1625WAT      O20873   2.685   4.592   2.002 -0.8868  0.4373 -0.2791
 1625WAT     H120874   2.750   4.565   1.937  1.6563 -3.5641  3.3575
 1625WAT     H220875   2.607   4.542   1.980 -0.4259 -0.0473 -0.8566
 1626WAT      O20876   3.881   0.921   6.143  0.2008 -0.2246  0.5399
 1626WAT     H120877   3.858   0.990   6.081  1.8524 -0.3428 -0.2638
 1626WAT     H220878   3.833   0.844   6.112  0.0134  0.0380  0.1686
 1627WAT      O20879   1.068   0.935   1.107  0.1687  0.0165  0.1449
 1627WAT     H120880   1.069   0.839   1.117  2.0359  0.1526  2.1215
 1627WAT     H220881   1.025   0.967   1.187  1.0791  0.8674  0.3060
 1628WAT      O20882   5.882   0.178   7.835 -0.1607 -0.1687  0.3639
 1628WAT     H120883   5.937   0.126   7.895 -0.3256  1.4666  2.0376
 1628WAT     H220884   5.941   0.244   7.800 -0.6365  0.4777  0.7580
 1629WAT      O20885   2.554   3.744   1.504 -0.1347  0.4626  0.0868
 1629WAT     H120886   2.472   3.707   1.471  0.0740  1.2825 -1.4711
 1629WAT     H220887   2.608   3.668   1.525 -0.6837 -0.1067 -0.5043
 1630WAT      O20888   2.089   1.058   6.821  0.3782 -0.0640 -0.2991
 1630WAT     H120889   2.148   1.134   6.823  1.6905 -0.9773 -2.0631
 1630WAT     H220890   2.128   0.998   6.758 -0.5555 -2.3148  1.1302
 1631WAT      O20891   4.265   3.493   6.459 -0.0033 -0.1224  1.1691
 1631WAT     H120892   4.234   3.508   6.369  0.8429  0.2482  0.9286
 1631WAT     H220893   4.348   3.541   6.464 -1.1351  1.8310  2.8734
 1632WAT      O20894   0.937   5.613   6.797  0.3549 -0.2737  0.2318
 1632WAT     H120895   0.917   5.532   6.749 -1.4363  0.6975 -0.7512
 1632WAT     H220896   1.018   5.645   6.757 -0.7068  0.1297 -1.7283
 1633WAT      O20897   0.828   3.592   1.110 -0.3622 -0.1583 -0.2216
 1633WAT     H120898   0.768   3.625   1.177  0.0438  0.2129 -0.0275
 1633WAT     H220899   0.849   3.669   1.057  0.1708 -0.2187 -0.1026
 1634WAT      O20900   2.749   5.294   2.358 -0.0461  0.0674 -0.2099
 1634WAT     H120901   2.805   5.372   2.361 -0.8658  0.6604  0.3904
 1634WAT     H220902   2.695   5.301   2.437 -1.2484 -0.2611 -0.9691
 1635WAT      O20903   3.973   3.552   0.164 -0.0768 -0.0103  0.1695
 1635WAT     H120904   3.996   3.635   0.206  0.6845  0.1958 -0.6120
 1635WAT     H220905   3.976   3.572   0.070 -0.8172 -0.6885 -0.0029
 1636WAT      O20906   2.514   4.869   7.041  0.0281  0.5173 -0.2643
 1636WAT     H120907   2.608   4.856   7.049 -0.0153 -0.1678 -0.7723
 1636WAT     H220908   2.485   4.800   6.981 -0.5777  1.6244 -1.3070
 1637WAT      O20909   2.267   5.326   6.886  0.0389  0.1185  0.0699
 1637WAT     H120910   2.265   5.392   6.955  0.1476  0.0358  0.1533
 1637WAT     H220911   2.357   5.292   6.889 -0.6745 -1.8621  1.7585
 1638WAT      O20912   0.288   5.269   5.976  0.4288 -0.3837 -0.3275
 1638WAT     H120913   0.371   5.293   5.935  1.0501 -1.8450  0.0108
 1638WAT     H220914   0.303   5.285   6.070  0.0490  0.1037 -0.3478
 1639WAT      O20915   2.212   1.144   6.408 -0.4355 -0.4660 -0.3672
 1639WAT     H120916   2.262   1.225   6.394  1.3779 -1.3119  0.9047
 1639WAT     H220917   2.221   1.096   6.326 -0.0159 -0.1644 -0.5022
 1640WAT      O20918   3.130   5.856   6.633  0.3799 -0.2035 -0.5299
 1640WAT     H120919   3.210   5.863   6.581  0.2826 -0.5716 -0.7291
 1640WAT     H220920   3.156   5.805   6.710  1.4706  3.2919  1.6671
 1641WAT      O20921   5.975   1.901   0.458 -0.9969 -0.5821 -0.1083
 1641WAT     H120922   6.019   1.839   0.400 -0.5774  0.1347 -0.5837
 1641WAT     H220923   5.888   1.910   0.421 -0.4094  0.6631 -1.2975
 1642WAT      O20924   4.012   3.857   1.048  0.1012 -0.1510 -0.1458
 1642WAT     H120925   3.924   3.821   1.041  0.3434 -0.4836 -1.9491
 1642WAT     H220926   4.070   3.780   1.051  0.3640  0.0676  0.5228
 1643WAT      O20927   6.081   4.444   1.137 -0.3892 -0.0628  0.3960
 1643WAT     H120928   6.170   4.424   1.107 -1.0498 -1.3926 -0.7914
 1643WAT     H220929   6.063   4.378   1.203 -0.4576  0.2900  0.7343
 1644WAT      O20930   1.151   4.024   1.436  0.1482 -0.4898 -0.1246
 1644WAT     H120931   1.241   4.055   1.441  0.5439 -1.4304 -1.0251
 1644WAT     H220932   1.125   4.011   1.527  1.0033 -0.4459  0.1346
 1645WAT      O20933   4.095   2.429   1.236  0.5531 -0.4034 -0.1349
 1645WAT     H120934   4.106   2.425   1.141  1.2492 -2.4258 -0.0155
 1645WAT     H220935   4.185   2.436   1.269  0.2852  0.7426  0.3738
 1646WAT      O20936   3.618   4.442   1.611  0.1487 -0.1706 -0.2898
 1646WAT     H120937   3.688   4.382   1.585 -0.2449 -0.9888  0.4929
 1646WAT     H220938   3.626   4.516   1.551  0.5463 -1.0734 -1.3779
 1647WAT      O20939   5.774   3.347   1.691  0.3596  0.2934 -0.5700
 1647WAT     H120940   5.681   3.328   1.694  0.6900 -1.6511 -1.2458
 1647WAT     H220941   5.798   3.367   1.782 -0.4624 -0.4840 -0.1776
 1648WAT      O20942   3.407   1.242   6.950  0.3894 -0.4626  0.4701
 1648WAT     H120943   3.468   1.245   6.876  0.9275  0.6231  0.9354
 1648WAT     H220944   3.426   1.321   7.000 -3.2430  1.4009 -0.7640
 1649WAT      O20945   3.943   0.620   6.233  0.0891  0.7630  0.1353
 1649WAT     H120946   3.872   0.666   6.187 -0.4203  1.5282  1.6188
 1649WAT     H220947   3.997   0.583   6.163 -2.4720 -0.9935 -1.0745
 1650WAT      O20948   0.989   4.919   0.212  0.5453 -0.0999  0.2882
 1650WAT     H120949   0.901   4.917   0.250  0.3094  2.0756 -0.0326
 1650WAT     H220950   0.984   4.860   0.136 -0.0694 -1.4371  1.3215
 1651WAT      O20951   4.858   4.605   7.183  0.2326 -0.1495 -0.0666
 1651WAT     H120952   4.914   4.581   7.109 -0.8947  0.9121 -1.3234
 1651WAT     H220953   4.913   4.592   7.260  1.9261  0.0284 -1.1849
 1652WAT      O20954   0.044   1.274   6.479  0.2293  0.5411 -0.2189
 1652WAT     H120955   0.053   1.349   6.537  2.1333 -1.6020  2.5082
 1652WAT     H220956   0.123   1.275   6.425  1.1972 -0.4344  1.1173
 1653WAT      O20957   5.538   3.960   0.321 -0.2369 -0.1032 -0.0480
 1653WAT     H120958   5.601   3.971   0.250  0.5845  2.5232  0.9934
 1653WAT     H220959   5.475   4.031   0.309 -2.0046 -1.5533  0.0466
 1654WAT      O20960   0.531   4.186   7.376 -0.3513 -0.2021 -0.1289
 1654WAT     H120961   0.607   4.130   7.397 -0.9699 -0.8553  0.4389
 1654WAT     H220962   0.515   4.171   7.283  2.0193  2.2093 -1.0829
 1655WAT      O20963   5.231   1.263   7.843 -0.3038 -0.0454  0.2589
 1655WAT     H120964   5.193   1.317   7.913 -1.9088 -0.0776 -0.5291
 1655WAT     H220965   5.247   1.325   7.772 -1.8901 -0.5342 -0.5500
 1656WAT      O20966   0.338   0.227   0.890 -0.3623 -0.2564 -0.2068
 1656WAT     H120967   0.243   0.234   0.883 -0.4110  0.5720  1.1291
 1656WAT     H220968   0.363   0.289   0.958  1.2863  0.5079 -1.4165
 1657WAT      O20969   3.270   1.471   5.611  0.2082  0.3731  0.2303
 1657WAT     H120970   3.292   1.381   5.634  0.5960  0.8623  1.8892
 1657WAT     H220971   3.184   1.465   5.569 -0.1971 -0.6834  1.1596
 1658WAT      O20972   0.562   6.034   1.738  0.2841  0.1659  0.5649
 1658WAT     H120973   0.531   5.963   1.681 -0.2020  0.5630  0.3215
 1658WAT     H220974   0.548   6.113   1.687  1.1546  0.4157  0.6975
 1659WAT      O20975   3.066   5.973   0.900 -0.3320  0.6287  0.0314
 1659WAT     H120976   3.158   5.952   0.883  0.2040  2.5853  0.2555
 1659WAT     H220977   3.023   5.960   0.815  0.6659  2.1032 -0.7454
 1660WAT      O20978   5.434   4.023   1.639 -0.7786  0.2582  0.0004
 1660WAT     H120979   5.528   4.039   1.652 -0.8457 -0.3727  1.3623
 1660WAT     H220980   5.392   4.105   1.665 -0.6191  0.5741 -0.6973
 1661WAT      O20981   4.166   0.277   1.073 -0.0471 -0.1637 -0.1915
 1661WAT     H120982   4.204   0.233   0.996 -0.2658  0.7381 -0.8296
 1661WAT     H220983   4.072   0.278   1.055 -0.1708 -0.5709  0.4248
 1662WAT      O20984   5.567   2.242   7.689 -0.0454  0.0992 -0.4258
 1662WAT     H120985   5.650   2.254   7.643  0.5827 -2.2173 -0.0351
 1662WAT     H220986   5.517   2.322   7.671  1.9785  1.2367 -1.2545
 1663WAT      O20987   0.074   3.658   1.409  0.1487 -0.1789 -0.5337
 1663WAT     H120988   0.123   3.740   1.414 -2.1089  1.1645  1.7463
 1663WAT     H220989  -0.013   3.685   1.380 -0.8037 -1.6431  0.8347
 1664WAT      O20990   3.041   5.962   1.402  0.5408 -0.2679  0.3575
 1664WAT     H120991   3.062   6.038   1.346  0.2308 -0.5791 -0.1917
 1664WAT     H220992   3.115   5.956   1.462  0.2392  0.9073  0.8835
 1665WAT      O20993   2.981   3.215   0.620  0.0032  0.1479 -0.4558
 1665WAT     H120994   2.908   3.260   0.663 -0.1012  0.6028 -1.0796
 1665WAT     H220995   3.026   3.170   0.690 -2.0425 -1.8469 -0.3073
 1666WAT      O20996   3.733   3.721   1.047 -0.6421 -0.6011 -0.0005
 1666WAT     H120997   3.657   3.766   1.011  0.2204 -1.0924 -2.6855
 1666WAT     H220998   3.710   3.628   1.045 -0.6617 -0.6259  1.0011
 1667WAT      O20999   2.704   0.870   1.093  0.0918  0.6881  0.2476
 1667WAT     H121000   2.655   0.853   1.012  2.4185 -1.0676 -0.9211
 1667WAT     H221001   2.673   0.804   1.155 -0.4536  0.9043  0.2072
 1668WAT      O21002   1.114   4.818   0.426  0.2823  0.6565 -1.0886
 1668WAT     H121003   1.189   4.765   0.399  1.1523  2.3071 -2.0727
 1668WAT     H221004   1.082   4.857   0.345 -2.3215 -0.8013 -0.8364
 1669WAT      O21005   2.219   3.302   0.409 -0.1302  0.0475 -0.2598
 1669WAT     H121006   2.280   3.258   0.467  0.0654 -0.1258 -0.5975
 1669WAT     H221007   2.167   3.231   0.371 -0.8633  0.2220  0.3814
 1670WAT      O21008   1.959   2.369   7.773  0.3210 -0.5523 -0.4153
 1670WAT     H121009   1.881   2.317   7.750 -0.5380 -0.3137  1.6525
 1670WAT     H221010   1.994   2.399   7.689 -3.5909  1.8887 -1.4318
 1671WAT      O21011   5.884   0.940   6.247  0.3397 -0.1509  0.0664
 1671WAT     H121012   5.952   0.968   6.185 -0.1246 -0.1232 -0.4343
 1671WAT     H221013   5.930   0.934   6.331  0.6923  1.1125 -0.0150
 1672WAT      O21014   2.246   5.044   1.346 -0.6826 -0.3637 -1.0017
 1672WAT     H121015   2.156   5.054   1.313 -1.1904  0.1632  0.4608
 1672WAT     H221016   2.272   5.132   1.370 -0.9070 -0.8711  1.3443
 1673WAT      O21017   5.503   5.067   7.772  0.8602  0.2583  0.0756
 1673WAT     H121018   5.497   5.123   7.849  0.8775 -0.5425  0.6695
 1673WAT     H221019   5.584   5.094   7.729  1.0866  0.3981  0.5826
 1674WAT      O21020   2.040   0.278   5.829 -0.0782 -0.0233 -0.3552
 1674WAT     H121021   1.974   0.214   5.804  0.5217 -0.7365 -0.1514
 1674WAT     H221022   2.073   0.313   5.746 -1.5186  1.2127 -0.4502
 1675WAT      O21023   3.999   3.696   5.837  0.1038 -0.0968  0.1948
 1675WAT     H121024   3.950   3.705   5.755  1.4795  1.2681 -0.5238
 1675WAT     H221025   3.933   3.712   5.905 -0.3915  2.5202 -0.7634
 1676WAT      O21026   0.043   4.668   6.276  0.4320 -0.7414 -0.0012
 1676WAT     H121027   0.019   4.736   6.338  2.5190  0.7771 -0.7487
 1676WAT     H221028   0.138   4.671   6.271  0.4642 -2.2309 -1.7058
 1677WAT      O21029   2.696   5.095   5.960  0.1754 -0.5147 -0.1208
 1677WAT     H121030   2.720   5.149   6.035 -0.9811  1.0487 -0.8141
 1677WAT     H221031   2.630   5.147   5.913 -1.4281 -2.7634 -0.5334
 1678WAT      O21032   0.283   1.487   6.941 -0.3009 -0.4927  0.0913
 1678WAT     H121033   0.308   1.497   6.849 -0.7030 -1.4000 -0.1269
 1678WAT     H221034   0.208   1.428   6.939  0.8544 -2.0834  1.1199
 1679WAT      O21035   3.320   2.551   1.937  0.2136  0.4345  0.2306
 1679WAT     H121036   3.325   2.540   2.032  0.4073  0.6827  0.2507
 1679WAT     H221037   3.377   2.626   1.918  0.5167  0.1212 -0.1291
 1680WAT      O21038   5.398   5.469   1.931  0.1302 -0.2351  0.3214
 1680WAT     H121039   5.440   5.538   1.880 -0.2921  0.6808  1.1705
 1680WAT     H221040   5.471   5.417   1.965  0.4521 -0.2241 -0.3360
 1681WAT      O21041   0.030   1.353   0.189 -0.5663  0.0332  0.2729
 1681WAT     H121042   0.049   1.270   0.233  0.3232 -0.7184 -1.4243
 1681WAT     H221043   0.069   1.420   0.246  2.1034 -1.0234 -0.1280
 1682WAT      O21044   0.925   4.418   5.683 -0.2633 -0.3536 -0.2202
 1682WAT     H121045   0.849   4.468   5.653 -0.7064 -1.4433 -0.9944
 1682WAT     H221046   0.894   4.327   5.685  0.7851 -0.7126  0.2591
 1683WAT      O21047   5.952   2.487   1.330 -0.2628  0.0640 -0.6901
 1683WAT     H121048   5.964   2.451   1.418 -2.1865  2.0037  0.4781
 1683WAT     H221049   6.039   2.519   1.305  0.9114 -2.7809 -0.6834
 1684WAT      O21050   3.148   2.614   6.533  0.4807 -1.0020  0.1816
 1684WAT     H121051   3.067   2.663   6.519  1.1638  0.5240  1.3071
 1684WAT     H221052   3.176   2.639   6.621  1.3031 -2.8121  0.4649
 1685WAT      O21053   3.293   5.816   0.736 -0.0876 -0.1036  0.1040
 1685WAT     H121054   3.343   5.756   0.792 -1.3219 -0.4947  0.8177
 1685WAT     H221055   3.314   5.788   0.646  1.1309 -0.1083  0.3740
 1686WAT      O21056   2.699   4.386   7.267 -0.2926 -0.4645 -0.1732
 1686WAT     H121057   2.646   4.415   7.342  0.3076 -0.2220  0.1629
 1686WAT     H221058   2.784   4.365   7.305 -0.2017 -1.0389 -0.6823
 1687WAT      O21059   4.535   2.459   0.722  1.0258  0.6292  0.2590
 1687WAT     H121060   4.468   2.507   0.673  0.6962  0.2555  0.3427
 1687WAT     H221061   4.618   2.490   0.685  0.8053  0.9529  0.0255
 1688WAT      O21062   2.557   4.812   0.248 -0.5046  0.2713 -0.1113
 1688WAT     H121063   2.464   4.814   0.274 -0.6823  0.4012 -0.7547
 1688WAT     H221064   2.575   4.901   0.219 -0.6080 -0.1448 -1.4835
 1689WAT      O21065   3.353   0.996   0.242 -0.1081  0.6051 -0.4168
 1689WAT     H121066   3.323   1.018   0.330 -1.2732  0.2027 -0.6968
 1689WAT     H221067   3.317   1.065   0.186 -0.1900  0.3350 -0.7014
 1690WAT      O21068   2.348   5.358   0.738 -0.5175  1.0134 -0.6007
 1690WAT     H121069   2.326   5.298   0.667 -0.4617  0.4842 -0.1726
 1690WAT     H221070   2.442   5.345   0.753 -0.5902  0.9007 -0.2259
 1691WAT      O21071   2.877   5.435   0.653  0.3678 -0.2504  0.6246
 1691WAT     H121072   2.807   5.501   0.649  1.5654  1.0513 -0.3457
 1691WAT     H221073   2.836   5.354   0.623 -0.5383  0.6764 -0.7624
 1692WAT      O21074   2.053   1.851   7.679 -0.4351 -0.2218 -0.1150
 1692WAT     H121075   2.102   1.801   7.744  1.9579  0.1689 -1.5101
 1692WAT     H221076   2.103   1.932   7.668 -1.9337  0.6351 -0.9220
 1693WAT      O21077   4.685   3.523   0.940  0.3064  0.8852  0.2639
 1693WAT     H121078   4.742   3.479   0.876  1.3250  3.1326 -0.5118
 1693WAT     H221079   4.705   3.481   1.023 -0.2584 -1.4016 -0.6829
 1694WAT      O21080   2.720   0.820   7.645  0.5366  0.1205 -0.1036
 1694WAT     H121081   2.774   0.742   7.632  0.3275 -0.1325  0.5280
 1694WAT     H221082   2.632   0.793   7.619  0.3255 -0.0694  0.7847
 1695WAT      O21083   2.065   1.830   0.675 -0.2677 -0.2161  0.0992
 1695WAT     H121084   2.030   1.875   0.597 -0.3784 -0.7878 -0.1820
 1695WAT     H221085   1.990   1.786   0.713  0.0531 -1.0839 -0.2540
 1696WAT      O21086   4.686   0.285   1.289  0.6983 -0.0827 -0.1515
 1696WAT     H121087   4.689   0.215   1.224 -1.5358  0.4304 -0.8790
 1696WAT     H221088   4.631   0.250   1.359 -0.6398  0.9893 -0.6292
 1697WAT      O21089   2.340   0.486   7.520 -0.1662  0.5155 -0.3891
 1697WAT     H121090   2.399   0.557   7.495  0.2498  1.2208  2.3186
 1697WAT     H221091   2.392   0.406   7.508  0.5973  0.9613 -0.1156
 1698WAT      O21092   3.179   4.963   7.767  0.5139  0.1586  0.2316
 1698WAT     H121093   3.107   4.903   7.752 -1.3054  2.2109  0.2817
 1698WAT     H221094   3.238   4.950   7.692 -0.7584 -0.3913 -0.7071
 1699WAT      O21095   2.718   1.137   1.127  0.0540 -0.4516  0.6247
 1699WAT     H121096   2.780   1.163   1.059 -0.5403 -0.4006  0.0997
 1699WAT     H221097   2.729   1.042   1.133 -0.3472 -0.5400  0.0070
 1700WAT      O21098   5.708   4.236   6.680  0.4015 -0.3198  0.4175
 1700WAT     H121099   5.782   4.190   6.642  1.6166  1.1423  0.8974
 1700WAT     H221100   5.646   4.247   6.608  0.5644 -1.6794  0.0466
 1701WAT      O21101   1.416   1.943   0.318 -0.4344  0.2888  0.0305
 1701WAT     H121102   1.470   1.910   0.246 -0.4751  0.2768  0.0056
 1701WAT     H221103   1.384   1.864   0.362 -0.0492  0.3000  0.3321
 1702WAT      O21104   4.964   5.197   0.617 -0.3052 -0.2739  0.6680
 1702WAT     H121105   4.926   5.109   0.627 -1.9335  0.6150  3.2951
 1702WAT     H221106   4.890   5.251   0.589  0.7839  0.2588 -1.3684
 1703WAT      O21107   5.873   4.617   0.011 -0.6722  0.2111  0.4294
 1703WAT     H121108   5.826   4.635   0.093 -0.5462 -0.4034  0.6413
 1703WAT     H221109   5.945   4.679   0.011 -0.3288 -0.1739  1.0804
 1704WAT      O21110   0.604   4.083   0.237 -0.2425 -0.1134 -0.2750
 1704WAT     H121111   0.542   4.120   0.174 -0.0944  0.9600  0.1867
 1704WAT     H221112   0.557   4.010   0.277 -0.2960 -0.8843 -1.6900
 1705WAT      O21113   3.658   4.432   0.524  0.5406  0.6009 -0.1022
 1705WAT     H121114   3.665   4.354   0.470  0.1018  0.0387  0.6324
 1705WAT     H221115   3.746   4.470   0.525  0.3802  1.1397 -1.9373
 1706WAT      O21116   1.336   3.794   1.220  0.7938 -0.1888  0.1631
 1706WAT     H121117   1.359   3.701   1.231  1.6085  0.0093  0.1553
 1706WAT     H221118   1.240   3.794   1.219  0.7810 -1.1187 -0.6254
 1707WAT      O21119   3.893   0.060   6.642  0.2573  0.4076  0.2566
 1707WAT     H121120   3.941   0.115   6.704 -0.0891  0.1711  0.7478
 1707WAT     H221121   3.922   0.090   6.556 -1.4781  2.8400  0.4154
 1708WAT      O21122   5.664   1.292   7.516 -0.4363  0.5939  0.6170
 1708WAT     H121123   5.632   1.203   7.502  0.6576  0.2979 -0.1855
 1708WAT     H221124   5.725   1.307   7.443  0.2870  1.5596  1.3885
 1709WAT      O21125   4.356   3.164   1.060  0.1678 -0.0296  0.2662
 1709WAT     H121126   4.425   3.199   1.117 -0.0364 -0.2907  0.6712
 1709WAT     H221127   4.403   3.134   0.982  0.2114  2.6417 -0.8499
 1710WAT      O21128   3.471   0.339   7.442 -0.1341 -0.0119  0.5602
 1710WAT     H121129   3.543   0.364   7.501 -0.0547  3.2691 -0.7050
 1710WAT     H221130   3.392   0.353   7.494 -0.0566  2.7375  0.1232
 1711WAT      O21131   2.774   6.135   6.135 -0.4918  0.1150 -0.3215
 1711WAT     H121132   2.792   6.162   6.226  0.0163  1.7446 -0.8646
 1711WAT     H221133   2.824   6.054   6.124  1.5476  1.2327  0.1254
 1712WAT      O21134   5.937   0.779   0.320 -0.2823  0.8485 -0.3590
 1712WAT     H121135   5.869   0.770   0.387 -0.0677 -1.5889 -0.3759
 1712WAT     H221136   6.008   0.826   0.365  0.2848 -1.6282  1.5545
 1713WAT      O21137   5.779   4.993   6.103  0.4398  0.1158 -0.0502
 1713WAT     H121138   5.727   4.971   6.026 -1.1124  0.7013  0.7824
 1713WAT     H221139   5.805   5.084   6.090  0.7048  0.0238 -0.1663
 1714WAT      O21140   0.267   3.324   7.152 -0.0170  0.2419 -0.3212
 1714WAT     H121141   0.221   3.270   7.088 -0.2248  0.4665 -0.3650
 1714WAT     H221142   0.258   3.413   7.119 -2.3535  0.7211  1.2939
 1715WAT      O21143   3.590   1.724   6.207 -0.2472 -0.1701  0.7278
 1715WAT     H121144   3.593   1.817   6.186 -0.7644  0.4261  3.0811
 1715WAT     H221145   3.500   1.708   6.235  0.1342 -1.0993  1.4918
 1716WAT      O21146   4.260   3.644   7.748 -0.0607  0.1469 -0.3669
 1716WAT     H121147   4.269   3.727   7.703 -1.9231  0.8423  0.4635
 1716WAT     H221148   4.350   3.620   7.773  0.6992  0.9869 -2.1501
 1717WAT      O21149   5.686   5.043   6.597  0.0971  0.2171 -0.0501
 1717WAT     H121150   5.683   5.024   6.503  2.3503  2.3844 -0.6465
 1717WAT     H221151   5.636   5.125   6.606  1.3804  0.9748  0.3280
 1718WAT      O21152   0.886   3.952   7.680  0.1302  0.1635  0.0196
 1718WAT     H121153   0.920   4.002   7.754  0.4775 -0.0575  0.0098
 1718WAT     H221154   0.961   3.941   7.621  0.1934 -0.8257  0.2715
 1719WAT      O21155   4.174   1.687   6.108 -0.2246 -0.2780  0.3199
 1719WAT     H121156   4.114   1.613   6.117  0.0825 -0.5936 -0.1940
 1719WAT     H221157   4.170   1.712   6.016  2.0617 -1.7410 -0.2670
 1720WAT      O21158   4.451   1.350   0.693 -0.2974 -0.2787 -0.2063
 1720WAT     H121159   4.531   1.330   0.644 -0.1709 -0.7673  0.1907
 1720WAT     H221160   4.386   1.289   0.659 -0.6060  0.3592 -0.7816
 1721WAT      O21161   3.243   0.063   0.507 -0.7163  0.4219  0.4347
 1721WAT     H121162   3.272   0.153   0.496 -0.5740  0.2328 -0.8559
 1721WAT     H221163   3.321   0.016   0.536 -0.3665  0.4083 -0.5086
 1722WAT      O21164   5.831   6.070   1.805  0.1673 -0.4772 -0.3059
 1722WAT     H121165   5.869   6.041   1.888 -0.8299  0.0557  0.3582
 1722WAT     H221166   5.888   6.141   1.776  1.3422 -1.5959 -0.8211
 1723WAT      O21167   6.092   1.230   5.978 -0.2107 -0.2863 -0.3683
 1723WAT     H121168   6.115   1.190   5.895  3.8972  0.3682  0.2248
 1723WAT     H221169   6.040   1.307   5.954 -0.5744 -1.0393 -2.1586
 1724WAT      O21170   4.445   2.495   6.868 -0.2539  0.0077 -0.3304
 1724WAT     H121171   4.357   2.459   6.857 -0.7255  0.7914  0.6575
 1724WAT     H221172   4.438   2.549   6.947  1.2807 -0.4307  0.1277
 1725WAT      O21173   4.713   2.673   1.373 -0.4314  0.0797 -0.2126
 1725WAT     H121174   4.712   2.681   1.277  1.3534 -0.6100 -0.3357
 1725WAT     H221175   4.802   2.644   1.393 -1.1598 -1.0865  1.5599
 1726WAT      O21176   3.351   3.260   5.863  0.3540 -0.7235  0.4535
 1726WAT     H121177   3.322   3.274   5.954  0.6501 -1.0168  0.5959
 1726WAT     H221178   3.300   3.323   5.812  0.0307 -0.6992  0.7979
 1727WAT      O21179   5.535   2.381   1.338 -0.2290 -0.0554  0.4566
 1727WAT     H121180   5.614   2.433   1.327 -0.2707 -0.1210 -0.1907
 1727WAT     H221181   5.534   2.358   1.431 -0.6105  1.7107  0.9066
 1728WAT      O21182   4.171   5.774   6.741  0.1878  0.3400 -0.5739
 1728WAT     H121183   4.207   5.793   6.828  0.2600  0.5595 -0.6520
 1728WAT     H221184   4.115   5.849   6.721 -0.4454 -0.0726 -0.3863
 1729WAT      O21185   1.524   1.570   1.594 -0.5076 -0.4554  0.4083
 1729WAT     H121186   1.487   1.484   1.614  2.4516 -1.7772  0.7481
 1729WAT     H221187   1.564   1.598   1.676  0.4807  0.1735 -0.2755
 1730WAT      O21188   4.746   4.926   2.282 -0.0987  0.7056  0.1878
 1730WAT     H121189   4.820   4.955   2.335 -0.3843  1.1848  0.3378
 1730WAT     H221190   4.785   4.872   2.213  0.3223  0.4711  0.6036
 1731WAT      O21191   4.189   3.689   7.281  0.2335 -0.0784 -0.0435
 1731WAT     H121192   4.269   3.741   7.294 -0.4190  0.4118  2.4077
 1731WAT     H221193   4.221   3.604   7.252  1.5236  0.5865 -0.7139
 1732WAT      O21194   5.241   5.996   0.289 -0.4273  0.0454  0.1087
 1732WAT     H121195   5.306   5.980   0.358 -1.3869  0.7013  1.2046
 1732WAT     H221196   5.159   6.008   0.336 -1.5948 -1.9200 -1.3006
 1733WAT      O21197   3.199   3.706   1.137  0.5506  0.7791  0.0129
 1733WAT     H121198   3.118   3.752   1.160 -0.9620 -0.3529 -2.6632
 1733WAT     H221199   3.267   3.753   1.185 -1.4496  2.9702  0.8998
 1734WAT      O21200   4.561   2.418   0.352 -0.1515  0.3067  0.2936
 1734WAT     H121201   4.567   2.330   0.389  1.9185  0.9410  1.6094
 1734WAT     H221202   4.622   2.470   0.403 -0.0906  2.1575 -1.5395
 1735WAT      O21203   2.365   2.449   7.844  0.6831 -0.0958  0.3565
 1735WAT     H121204   2.402   2.393   7.912 -0.6696 -0.9946  0.3981
 1735WAT     H221205   2.356   2.535   7.886  1.3530 -0.2280  0.7856
 1736WAT      O21206   4.897   0.991   1.139 -0.1419 -0.0943  0.3640
 1736WAT     H121207   4.953   1.030   1.072  0.1114 -0.2287  0.4943
 1736WAT     H221208   4.816   0.968   1.093 -1.3004  2.7896  0.7483
 1737WAT      O21209   0.982   1.492   7.493 -0.0854  0.0257 -0.4734
 1737WAT     H121210   1.066   1.463   7.528 -0.5157 -0.1993  0.3870
 1737WAT     H221211   0.930   1.514   7.570  0.0168  2.6173 -1.0482
 1738WAT      O21212   0.273   1.240   7.816 -0.2056  0.4707  0.0449
 1738WAT     H121213   0.249   1.325   7.853 -0.8347 -0.4406  1.8445
 1738WAT     H221214   0.194   1.212   7.769  0.6518  1.7082 -2.3095
 1739WAT      O21215   3.191   1.157   2.674  0.8758 -0.1554  0.1447
 1739WAT     H121216   3.237   1.077   2.648  1.3698 -0.7773  2.6825
 1739WAT     H221217   3.118   1.164   2.613  1.0133 -2.3858 -0.3393
 1740WAT      O21218   4.426   4.941   0.482  0.4862  0.6716 -0.7014
 1740WAT     H121219   4.469   4.859   0.503 -0.6300  0.2673  0.1521
 1740WAT     H221220   4.411   4.982   0.567 -3.2361 -0.5125 -0.6036
 1741WAT      O21221   3.502   1.247   1.124  0.2613 -0.1401  0.3184
 1741WAT     H121222   3.578   1.191   1.137  0.6459  0.6437  1.7016
 1741WAT     H221223   3.451   1.237   1.205 -0.4775  0.2745 -0.0782
 1742WAT      O21224   5.232   3.549   0.829  0.0712 -0.0311 -0.3324
 1742WAT     H121225   5.235   3.614   0.899 -0.7645 -0.6140  0.2583
 1742WAT     H221226   5.238   3.601   0.749  0.4066  0.6924  0.1537
 1743WAT      O21227   5.785   0.732   0.819 -0.3135  0.4417  0.2047
 1743WAT     H121228   5.871   0.702   0.847 -1.2375 -3.0814 -0.2068
 1743WAT     H221229   5.761   0.800   0.882  1.3043 -0.9902  2.5086
 1744WAT      O21230   3.165   4.600   6.621 -0.1210 -0.0220  0.4387
 1744WAT     H121231   3.079   4.639   6.611  0.1219  0.1266 -1.4472
 1744WAT     H221232   3.225   4.665   6.585  0.6932 -0.5286  0.8475
 1745WAT      O21233   0.426   3.859   0.220  0.8197  0.3631  0.0029
 1745WAT     H121234   0.370   3.923   0.176 -0.1020 -0.2181  0.3038
 1745WAT     H221235   0.450   3.797   0.151  2.0630  1.2473 -0.3842
 1746WAT      O21236   0.283   2.136   0.051  0.2149 -0.1004  0.1569
 1746WAT     H121237   0.289   2.131   0.146 -0.1178 -0.5849  0.1569
 1746WAT     H221238   0.192   2.112   0.031  0.0221  0.9082 -0.2247
 1747WAT      O21239   1.341   5.096   2.111  0.4324 -0.1013  0.0201
 1747WAT     H121240   1.355   5.188   2.131  0.0277 -0.1835  0.7043
 1747WAT     H221241   1.395   5.080   2.034 -1.2597  1.2677 -1.5485
 1748WAT      O21242   5.377   1.398   0.957  0.1054  0.5282  0.2490
 1748WAT     H121243   5.389   1.472   1.017  0.2053  0.2390  0.5867
 1748WAT     H221244   5.284   1.378   0.961  0.4214 -0.7900  1.8611
 1749WAT      O21245   4.054   2.463   0.922  0.1022  0.7001 -0.0629
 1749WAT     H121246   4.012   2.456   0.836 -0.6683  0.9057  0.2919
 1749WAT     H221247   4.034   2.380   0.965 -0.3392  0.9856  0.2852
 1750WAT      O21248   0.518   2.340   0.698  0.3469 -0.0889 -0.0210
 1750WAT     H121249   0.443   2.312   0.750 -0.3621 -0.5965 -1.2672
 1750WAT     H221250   0.593   2.334   0.758 -0.3232 -1.3674  0.7294
 1751WAT      O21251   4.141   3.284   0.838  0.2382 -0.5764 -0.0891
 1751WAT     H121252   4.230   3.318   0.850  0.0096  0.0844 -0.2433
 1751WAT     H221253   4.144   3.238   0.753  0.1870  0.2843 -0.5663
 1752WAT      O21254   5.397   4.975   6.732  0.2008 -0.0861  0.2963
 1752WAT     H121255   5.454   5.049   6.711 -1.5278  1.1534 -0.2370
 1752WAT     H221256   5.318   5.015   6.768  0.2473 -1.8169  2.5518
 1753WAT      O21257   3.820   2.495   7.860  0.1194 -0.0696 -0.7165
 1753WAT     H121258   3.742   2.519   7.909  0.8840  0.2010  0.3986
 1753WAT     H221259   3.789   2.480   7.770 -1.6033 -2.1982  0.1392
 1754WAT      O21260   5.072   4.820   0.052  0.2873 -0.0300  0.2060
 1754WAT     H121261   5.115   4.852   0.131  2.3988  0.3663 -1.0397
 1754WAT     H221262   5.079   4.892  -0.010 -0.4214 -0.7002 -0.6817
 1755WAT      O21263   0.872   4.647   1.757  0.0869  0.3962  0.1487
 1755WAT     H121264   0.839   4.655   1.847 -0.9709 -0.9332 -0.0905
 1755WAT     H221265   0.945   4.708   1.753  0.7571 -0.1925  2.2038
 1756WAT      O21266   2.346   2.837   1.282  0.4735  0.1943  0.1877
 1756WAT     H121267   2.394   2.908   1.239 -0.5860  1.0655  0.3923
 1756WAT     H221268   2.375   2.758   1.237  1.4073  0.7910 -0.2983
 1757WAT      O21269   0.618   4.409   7.584 -0.4493 -0.0953 -0.5838
 1757WAT     H121270   0.592   4.362   7.664  0.0068  0.4612 -0.0985
 1757WAT     H221271   0.538   4.412   7.531 -1.1511  0.7191  0.4605
 1758WAT      O21272   5.776   0.435   7.884 -0.1552 -0.3661  0.2818
 1758WAT     H121273   5.819   0.485   7.953  1.0936 -1.3224  0.2435
 1758WAT     H221274   5.817   0.348   7.889 -0.8836 -0.8000 -0.8928
 1759WAT      O21275   4.719   5.543   1.300  0.4870  0.2860 -0.1870
 1759WAT     H121276   4.762   5.626   1.323  0.3313  0.4927 -0.6258
 1759WAT     H221277   4.628   5.568   1.281 -0.6196 -0.4886  3.3764
 1760WAT      O21278   2.812   5.425   7.914 -0.7656 -0.1032  0.2478
 1760WAT     H121279   2.817   5.331   7.894 -1.2755 -0.2781  0.9111
 1760WAT     H221280   2.879   5.439   7.981 -0.9767 -0.0834  0.4576
 1761WAT      O21281   4.977   3.144   6.187 -0.3788  0.4678 -0.4568
 1761WAT     H121282   4.947   3.124   6.098 -1.4038 -1.7941  0.2956
 1761WAT     H221283   4.899   3.177   6.232 -0.9115 -1.9029  0.5212
 1762WAT      O21284   6.189   2.806   5.555 -0.4621  0.2505 -0.0855
 1762WAT     H121285   6.212   2.876   5.616 -1.3101  0.1292  0.3749
 1762WAT     H221286   6.175   2.729   5.609  0.4023 -0.2797 -0.5873
 1763WAT      O21287   1.460   4.979   0.276  0.0074 -0.3454 -0.1080
 1763WAT     H121288   1.527   4.963   0.210 -0.2106 -1.3929 -0.0842
 1763WAT     H221289   1.378   4.986   0.227 -0.0637 -0.4751 -0.0084
 1764WAT      O21290   4.756   5.084   6.307 -0.2650 -0.3830 -0.5028
 1764WAT     H121291   4.685   5.148   6.312 -1.3801 -1.6534  1.0434
 1764WAT     H221292   4.712   5.000   6.295  1.0785 -1.0270 -1.1313
 1765WAT      O21293   0.920   2.834   7.826  0.4917 -0.0629  0.2155
 1765WAT     H121294   0.980   2.907   7.844  1.1518 -0.9332  1.7083
 1765WAT     H221295   0.948   2.765   7.886 -0.7965 -1.1809 -0.4297
 1766WAT      O21296   0.063   2.465   1.577  0.0991  0.2506  0.4608
 1766WAT     H121297   0.041   2.515   1.655  0.4734  0.1150  0.6537
 1766WAT     H221298   0.005   2.389   1.580 -0.8234  0.9021 -0.0907
 1767WAT      O21299   4.030   5.879   0.482  0.7344 -0.0879  0.1705
 1767WAT     H121300   4.044   5.910   0.393  1.9511 -1.2335 -0.0592
 1767WAT     H221301   3.944   5.915   0.507  1.0964  1.5647 -0.8578
 1768WAT      O21302   2.272   5.273   6.424 -0.1169 -0.3799  0.2778
 1768WAT     H121303   2.315   5.290   6.340 -0.4603  1.7469  0.4690
 1768WAT     H221304   2.194   5.329   6.423 -1.1437 -1.7419  1.2603
 1769WAT      O21305   6.204   3.064   7.175 -0.3253  0.0996 -0.2566
 1769WAT     H121306   6.124   3.027   7.136 -0.0135 -0.9930  0.0915
 1769WAT     H221307   6.253   3.098   7.101  0.8666 -3.1036 -1.1192
 1770WAT      O21308   0.182   1.784   0.384  0.2001  0.1514  0.2550
 1770WAT     H121309   0.179   1.801   0.478 -1.9036 -0.2591  0.3043
 1770WAT     H221310   0.110   1.835   0.348 -1.0381 -2.0841 -0.6785
 1771WAT      O21311   3.556   2.057   0.652  0.5300  0.7196  0.2997
 1771WAT     H121312   3.560   2.014   0.737  2.0213  1.0678  0.4336
 1771WAT     H221313   3.537   2.149   0.672 -1.9163  0.3326  0.0563
 1772WAT      O21314   4.187   4.602   2.299  0.5648  0.1302  0.2115
 1772WAT     H121315   4.213   4.515   2.328 -3.2207 -0.5435  2.1712
 1772WAT     H221316   4.118   4.586   2.234 -0.5148  1.6386  0.9365
 1773WAT      O21317   1.927   1.263   7.879  0.6516 -0.3875 -0.4526
 1773WAT     H121318   1.881   1.284   7.798  1.5454 -0.6020 -1.0399
 1773WAT     H221319   1.934   1.167   7.878  0.5222 -0.4020 -0.0418
 1774WAT      O21320   5.923   0.288   0.146  0.1543 -0.2535 -0.0576
 1774WAT     H121321   5.992   0.226   0.121 -0.2077  0.0429 -1.9547
 1774WAT     H221322   5.851   0.233   0.177  0.6304 -0.6417  0.3923
 1775WAT      O21323   0.100   5.961   7.071  0.6262 -0.2780 -0.2372
 1775WAT     H121324   0.029   5.985   7.012  0.1258  0.2424  0.5673
 1775WAT     H221325   0.175   6.011   7.039  0.3496  0.0350 -0.4009
 1776WAT      O21326   3.010   0.069   0.024  0.1053  1.1350 -0.3704
 1776WAT     H121327   2.926   0.093   0.063  0.4146 -0.5833  1.5046
 1776WAT     H221328   2.992  -0.014  -0.021  0.7915  0.7728  0.0188
 1777WAT      O21329   3.805   1.069   6.978  0.3638 -0.1583 -0.2484
 1777WAT     H121330   3.730   1.030   7.023 -0.2256 -0.1527 -1.2014
 1777WAT     H221331   3.789   1.052   6.885  0.4272  1.7616 -0.6460
 1778WAT      O21332   3.252   5.190   1.538  0.0312 -0.7791  0.6278
 1778WAT     H121333   3.189   5.166   1.470  0.0124  1.9027 -0.4409
 1778WAT     H221334   3.203   5.180   1.620 -0.9991 -1.0656 -0.0021
 1779WAT      O21335   5.302   1.403   0.263 -0.6567  0.5499 -0.0802
 1779WAT     H121336   5.228   1.438   0.213 -0.7715  2.0073  1.0573
 1779WAT     H221337   5.378   1.450   0.228 -0.6070  0.8679  0.4574
 1780WAT      O21338   4.402   1.027   6.492 -0.0376 -0.3684 -0.4116
 1780WAT     H121339   4.383   1.053   6.582  0.0914 -0.8486 -0.2427
 1780WAT     H221340   4.385   0.933   6.490  1.8162 -0.7337 -0.3800
 1781WAT      O21341   4.040   5.204   0.725 -0.9746  0.0014  0.7143
 1781WAT     H121342   3.987   5.283   0.714 -1.4314 -0.1885  1.4698
 1781WAT     H221343   4.064   5.205   0.818  0.2092 -0.0046  0.4154
 1782WAT      O21344   3.073   2.377   0.176  0.1296  0.5101  0.1108
 1782WAT     H121345   3.059   2.426   0.095 -1.4054  0.5665  0.3778
 1782WAT     H221346   3.141   2.313   0.154  1.1315  1.7797 -0.6487
 1783WAT      O21347   4.909   5.338   1.311 -0.0864 -0.3366 -0.0931
 1783WAT     H121348   4.907   5.310   1.402  0.2836  1.1785  0.3980
 1783WAT     H221349   4.847   5.411   1.306  1.3861  0.9429 -0.5623
 1784WAT      O21350   4.409   4.384   7.758 -0.4904 -0.2298 -0.4927
 1784WAT     H121351   4.343   4.336   7.709 -0.7146 -0.8442  0.3939
 1784WAT     H221352   4.362   4.458   7.797 -0.6071 -0.5205 -0.0763
 1785WAT      O21353   6.010   0.697   7.187 -0.7552  0.1843 -0.4458
 1785WAT     H121354   5.966   0.680   7.271 -0.5560  1.8965  0.0379
 1785WAT     H221355   5.940   0.731   7.131 -0.7111 -0.1915 -0.7379
 1786WAT      O21356   3.545   6.107   2.619  0.3023 -0.1424 -0.3919
 1786WAT     H121357   3.465   6.142   2.658 -0.6652  1.3318 -3.3905
 1786WAT     H221358   3.528   6.014   2.607 -1.2965  0.2576 -1.5689
 1787WAT      O21359   2.239   2.741   7.650  0.0598  0.5852 -0.3226
 1787WAT     H121360   2.161   2.713   7.699 -0.2763 -1.2529 -1.8089
 1787WAT     H221361   2.208   2.811   7.592 -0.7310 -0.7296 -1.5341
 1788WAT      O21362   3.641   4.334   6.670  0.2713 -0.0952 -0.0999
 1788WAT     H121363   3.577   4.367   6.607 -1.4367  0.5652  1.8501
 1788WAT     H221364   3.687   4.265   6.623 -1.4515 -0.1784 -1.8212
 1789WAT      O21365   0.867   4.766   2.009  0.1820 -0.1604 -0.3142
 1789WAT     H121366   0.958   4.775   2.037  0.2452 -0.2372 -0.4935
 1789WAT     H221367   0.834   4.856   2.008  0.2968 -0.1186 -0.3851
 1790WAT      O21368   5.420   4.143   0.121  0.1992 -0.5937 -0.6417
 1790WAT     H121369   5.478   4.218   0.134  0.9780 -0.8298 -2.3823
 1790WAT     H221370   5.347   4.177   0.070 -0.5477 -0.5849  0.4082
 1791WAT      O21371   0.988   0.515   7.080 -0.0750  0.2542  0.5569
 1791WAT     H121372   0.934   0.437   7.091 -0.3628  0.4831  0.7912
 1791WAT     H221373   0.962   0.550   6.994 -1.0924  0.9634  1.1319
 1792WAT      O21374   2.807   4.980   1.256 -0.3920 -0.5631 -0.4040
 1792WAT     H121375   2.753   5.009   1.329  0.5124  0.6191 -0.1742
 1792WAT     H221376   2.755   4.997   1.178  0.3243  2.4514 -0.3512
 1793WAT      O21377   4.397   3.204   7.010 -0.2614 -0.0378  0.1882
 1793WAT     H121378   4.399   3.148   7.088  0.5262  1.7032  1.4856
 1793WAT     H221379   4.304   3.227   7.000 -0.4755 -0.8846  0.1305
 1794WAT      O21380   1.399   2.120   6.756  0.1015 -0.2316  0.0694
 1794WAT     H121381   1.469   2.150   6.814  1.9130 -1.4458 -1.3515
 1794WAT     H221382   1.440   2.051   6.704 -1.8546 -0.2240 -1.5917
 1795WAT      O21383   6.151   1.193   1.606 -0.0742  0.3586  0.4115
 1795WAT     H121384   6.083   1.144   1.561 -0.8009 -0.0455  1.8695
 1795WAT     H221385   6.227   1.135   1.603 -0.6535 -0.4654  1.3069
 1796WAT      O21386   1.568   4.586   2.284 -0.8192 -0.5718 -0.4742
 1796WAT     H121387   1.663   4.579   2.290 -0.8802 -1.1449 -0.1479
 1796WAT     H221388   1.553   4.639   2.205 -0.2136  0.3318 -0.0009
 1797WAT      O21389   5.648   3.685   6.956 -0.0191 -0.3867 -0.4243
 1797WAT     H121390   5.680   3.637   6.879 -1.6628 -0.0752 -1.3211
 1797WAT     H221391   5.645   3.776   6.928 -2.4875 -0.4962 -0.6912
 1798WAT      O21392   4.515   2.695   0.148  0.0915  0.0719  0.1933
 1798WAT     H121393   4.592   2.708   0.203  0.9251  0.3992 -1.0199
 1798WAT     H221394   4.536   2.616   0.097 -0.2152  0.3812 -0.4140
 1799WAT      O21395   1.886   1.868   7.203  0.1552 -0.3205  0.3676
 1799WAT     H121396   1.948   1.803   7.169 -1.2486 -1.3877 -0.2716
 1799WAT     H221397   1.848   1.907   7.124 -0.9347 -0.6372  0.7221
 1800WAT      O21398   1.813   0.156   6.727 -0.0234 -0.3462 -0.2636
 1800WAT     H121399   1.906   0.165   6.706 -0.0509  2.1445  0.4280
 1800WAT     H221400   1.811   0.146   6.822 -0.4914  1.6876 -0.0081
 1801WAT      O21401   6.123   4.388   2.276  0.0325  0.7666 -0.9339
 1801WAT     H121402   6.214   4.371   2.253  0.0953 -0.2828 -0.0106
 1801WAT     H221403   6.076   4.384   2.193  0.8814  1.8383 -1.4862
 1802WAT      O21404   1.737   5.537   0.250  0.4890 -0.3184  0.0938
 1802WAT     H121405   1.713   5.607   0.189 -0.9237 -0.6833  0.1981
 1802WAT     H221406   1.764   5.583   0.330  0.0922  0.1232 -0.0216
 1803WAT      O21407   0.378   0.225   6.549  0.1896  0.4382  0.3993
 1803WAT     H121408   0.407   0.257   6.464 -1.1832  0.8449  0.0512
 1803WAT     H221409   0.434   0.150   6.567 -0.4236 -0.5607 -1.5514
 1804WAT      O21410   3.047   2.141   7.336  0.2463  0.8962  0.4909
 1804WAT     H121411   2.953   2.145   7.319  0.5331 -0.1555 -1.7057
 1804WAT     H221412   3.063   2.051   7.362  0.5022  1.3997  2.1881
 1805WAT      O21413   1.178   5.705   5.791 -0.4982 -0.1201 -0.0945
 1805WAT     H121414   1.237   5.712   5.866 -0.9518  1.7179  0.1277
 1805WAT     H221415   1.235   5.719   5.715 -0.5467  1.2302  0.0973
 1806WAT      O21416   2.774   5.959   1.312  0.6538  0.4212 -0.3512
 1806WAT     H121417   2.865   5.937   1.333  0.8561  1.2437 -0.3264
 1806WAT     H221418   2.764   6.049   1.342 -0.5605 -0.0888  0.8175
 1807WAT      O21419   5.132   1.737   1.037 -0.5204 -0.0716  0.0353
 1807WAT     H121420   5.196   1.683   0.990 -0.2092  0.3760 -0.0608
 1807WAT     H221421   5.052   1.730   0.985 -0.4427 -0.3360 -0.0477
 1808WAT      O21422   0.448   2.561   0.885  0.4664  0.1098  0.2092
 1808WAT     H121423   0.506   2.503   0.835 -0.7291 -2.1943  1.3508
 1808WAT     H221424   0.367   2.512   0.895 -1.3680  2.7671 -0.3476
 1809WAT      O21425   5.818   2.572   7.677  0.0850 -0.2694  0.1507
 1809WAT     H121426   5.884   2.630   7.639 -0.1383 -0.8690 -1.2135
 1809WAT     H221427   5.831   2.488   7.632 -1.2620 -0.5564  0.2479
 1810WAT      O21428   3.119   5.019   1.083 -0.7601 -0.0177  0.1919
 1810WAT     H121429   3.032   4.985   1.100 -1.7858 -0.0657 -4.0704
 1810WAT     H221430   3.104   5.097   1.029  1.8085  0.1643 -0.3870
 1811WAT      O21431   4.315   0.104   0.887 -0.0404  0.3934 -0.5965
 1811WAT     H121432   4.246   0.045   0.857  3.3878 -3.6436 -1.4359
 1811WAT     H221433   4.329   0.164   0.814 -2.2684  1.0529 -0.5445
 1812WAT      O21434   2.831   1.835   5.391 -0.2301  0.0219 -0.1410
 1812WAT     H121435   2.786   1.919   5.379  0.4617  0.2732 -1.0826
 1812WAT     H221436   2.766   1.780   5.435 -1.6551  0.2415 -1.8337
 1813WAT      O21437   0.383   0.072   7.523  0.4873  0.4575 -0.2269
 1813WAT     H121438   0.413   0.160   7.504 -1.5074  1.2214 -0.1445
 1813WAT     H221439   0.319   0.083   7.594  0.5033 -1.0998  0.0745
 1814WAT      O21440   1.604   0.163   1.367 -0.1595 -0.4755  0.1652
 1814WAT     H121441   1.619   0.149   1.461 -2.7499  0.4725  0.7962
 1814WAT     H221442   1.686   0.135   1.326  1.9033  1.0549  2.8558
 1815WAT      O21443   0.974   4.896   7.125 -0.4212  0.5969 -0.1492
 1815WAT     H121444   0.968   4.814   7.173  0.7320  0.1075 -0.7971
 1815WAT     H221445   0.958   4.964   7.191 -0.5804 -0.1122  0.5628
 1816WAT      O21446   1.500   0.833   7.195 -0.0299  0.4770  0.2770
 1816WAT     H121447   1.514   0.739   7.208 -0.9144  0.3137  0.1700
 1816WAT     H221448   1.410   0.847   7.224 -0.8131  0.7833 -2.0841
 1817WAT      O21449   5.617   0.364   7.674  0.1167  0.2038  0.3313
 1817WAT     H121450   5.636   0.413   7.754  0.6553  0.3190  0.1398
 1817WAT     H221451   5.703   0.335   7.643 -0.2213 -1.2906  0.7005
 1818WAT      O21452   3.786   5.419   7.214 -0.3801 -0.6680  0.6305
 1818WAT     H121453   3.762   5.394   7.125 -0.0258  0.3137  0.2390
 1818WAT     H221454   3.786   5.515   7.212  0.8021 -0.6374  1.3638
 1819WAT      O21455   1.185   2.897   0.761  0.1784  0.2584 -0.0465
 1819WAT     H121456   1.190   2.811   0.802 -0.1318  0.2293 -0.0747
 1819WAT     H221457   1.223   2.885   0.674  0.3051  0.1931  0.0164
 1820WAT      O21458   2.686   4.797   7.466 -0.0722 -0.4588 -0.2665
 1820WAT     H121459   2.640   4.857   7.407 -0.6608 -0.0593  0.5810
 1820WAT     H221460   2.774   4.834   7.475 -0.9971  1.3953  1.7674
 1821WAT      O21461   5.867   4.215   7.038  0.8802 -0.2339  0.3374
 1821WAT     H121462   5.791   4.273   7.048  0.6064 -0.4352 -0.4505
 1821WAT     H221463   5.877   4.173   7.123 -0.9883 -1.5014  0.0051
 1822WAT      O21464   2.800   5.819   7.361 -0.0634  0.3318 -0.1560
 1822WAT     H121465   2.776   5.830   7.269 -0.4659  0.8707  0.0138
 1822WAT     H221466   2.782   5.904   7.402  1.3069  0.5057  0.1602
 1823WAT      O21467   1.729   0.942   0.153  0.3071 -0.0874  0.5200
 1823WAT     H121468   1.658   0.971   0.209 -0.1536  0.1667 -0.1863
 1823WAT     H221469   1.690   0.935   0.066  1.4136  1.2352 -0.1170
 1824WAT      O21470   5.485   4.840   7.374 -0.4030 -0.7399 -0.3663
 1824WAT     H121471   5.485   4.783   7.297  1.7754 -1.5445  0.1669
 1824WAT     H221472   5.548   4.801   7.434 -0.4976  1.0099  0.9819
 1825WAT      O21473   4.974   4.594   6.177  0.3607 -0.4747 -0.0697
 1825WAT     H121474   4.979   4.600   6.272 -0.0433 -0.0737 -0.0689
 1825WAT     H221475   5.030   4.664   6.145  0.0383 -0.2356 -0.1186
 1826WAT      O21476   2.619   3.890   0.463  0.3634 -0.4241 -0.3167
 1826WAT     H121477   2.710   3.896   0.493 -0.3370 -0.6644  2.0078
 1826WAT     H221478   2.583   3.817   0.513 -2.6742  3.1298  3.3704
 1827WAT      O21479   1.656   5.342   0.770  0.0680 -0.1835  0.8223
 1827WAT     H121480   1.700   5.259   0.789 -1.2746 -1.3106 -0.7341
 1827WAT     H221481   1.563   5.319   0.763 -0.3725  1.5270  0.6811
 1828WAT      O21482   4.249   4.882   6.621 -0.5081 -0.9916  0.0111
 1828WAT     H121483   4.233   4.940   6.546 -1.7149 -1.0967  0.1719
 1828WAT     H221484   4.204   4.924   6.694  1.1936 -0.5566  0.8652
 1829WAT      O21485   2.659   0.590   0.484 -0.0860  1.4836 -0.6748
 1829WAT     H121486   2.729   0.528   0.506 -1.2827  0.2216 -0.3115
 1829WAT     H221487   2.665   0.658   0.551  0.9588  1.5426 -0.8112
 1830WAT      O21488   2.081   0.732   7.724 -1.1232  0.0901  0.4329
 1830WAT     H121489   2.087   0.659   7.662 -0.6369  0.6458 -0.1914
 1830WAT     H221490   2.101   0.809   7.671 -0.8491  0.5922  1.2627
 1831WAT      O21491   2.614   1.545   5.759 -0.0286  0.3020 -0.0493
 1831WAT     H121492   2.609   1.466   5.814  2.3579  0.3287  0.3327
 1831WAT     H221493   2.579   1.517   5.675 -0.0243 -0.9360  0.3337
 1832WAT      O21494   0.481   3.410   0.893  0.2653 -0.3384  0.1598
 1832WAT     H121495   0.451   3.335   0.944 -1.6887  0.0765 -0.3138
 1832WAT     H221496   0.417   3.417   0.822 -0.9094  3.0720  1.3868
 1833WAT      O21497   3.380   5.762   0.479 -0.5001  0.1549  0.5299
 1833WAT     H121498   3.436   5.796   0.409 -2.2401  0.0504 -0.9807
 1833WAT     H221499   3.352   5.676   0.447 -2.6122  0.7752  0.5643
 1834WAT      O21500   2.779   5.479   0.318 -0.5806  0.3919  0.1349
 1834WAT     H121501   2.719   5.409   0.294 -1.9478  0.8130  2.1310
 1834WAT     H221502   2.726   5.541   0.366  1.4363  0.8179  1.9688
 1835WAT      O21503   4.154   1.405   1.246 -0.6261  0.1532  0.7526
 1835WAT     H121504   4.073   1.367   1.280 -0.6973 -0.9590 -0.5307
 1835WAT     H221505   4.137   1.417   1.152  1.2900 -2.0042  0.0123
 1836WAT      O21506   2.594   0.343   0.363  0.1991  0.6279 -0.5266
 1836WAT     H121507   2.617   0.421   0.413 -0.1766  0.1417  0.4498
 1836WAT     H221508   2.499   0.339   0.365  0.2300 -0.9974  1.3636
 1837WAT      O21509   0.832   0.125   7.360 -0.5373 -0.0278 -0.4644
 1837WAT     H121510   0.809   0.206   7.404 -1.4784  0.2752 -1.4525
 1837WAT     H221511   0.838   0.060   7.430 -1.5847  0.5108  0.1576
 1838WAT      O21512   1.103   0.689   0.121 -0.1355 -0.0907  0.1672
 1838WAT     H121513   1.105   0.721   0.211  0.9949  0.2746  0.0287
 1838WAT     H221514   1.138   0.762   0.069  1.6671 -1.1896 -0.2541
 1839WAT      O21515   4.654   3.397   1.582  0.3528 -0.2281 -0.0300
 1839WAT     H121516   4.710   3.323   1.602 -0.9906 -0.8419  1.6825
 1839WAT     H221517   4.565   3.362   1.586 -0.2583  1.1637 -0.6355
 1840WAT      O21518   3.813   1.471   7.474 -0.2141 -0.7191  0.1253
 1840WAT     H121519   3.777   1.482   7.562  0.1501  1.1815  0.0766
 1840WAT     H221520   3.889   1.529   7.471 -0.4955 -0.3628 -1.5740
 1841WAT      O21521   3.519   1.922   7.794 -0.2578 -0.0264 -0.0619
 1841WAT     H121522   3.584   1.991   7.808 -0.4006 -0.1765  1.5025
 1841WAT     H221523   3.435   1.963   7.816 -0.3262 -0.7044  1.0359
 1842WAT      O21524   3.113   1.055   1.810  0.1300 -0.3733  0.3604
 1842WAT     H121525   3.061   0.992   1.860 -1.4064 -0.4823 -1.3031
 1842WAT     H221526   3.049   1.118   1.777  1.2555  0.3403 -0.5108
 1843WAT      O21527   3.290   1.403   1.538  0.0354  1.1889  0.1351
 1843WAT     H121528   3.225   1.472   1.543 -2.2711 -0.8398  0.1428
 1843WAT     H221529   3.317   1.388   1.628  0.2554  1.7746  0.1736
 1844WAT      O21530   3.749   5.761   7.881  0.2720 -0.4359  0.2276
 1844WAT     H121531   3.695   5.719   7.948  1.8769 -2.5136  0.3161
 1844WAT     H221532   3.687   5.816   7.832 -0.9272  1.4072  3.4718
 1845WAT      O21533   0.787   3.461   5.436  0.7589 -0.3874 -0.3875
 1845WAT     H121534   0.723   3.524   5.470  0.9481  0.2476 -1.1923
 1845WAT     H221535   0.733   3.394   5.393  0.6301  0.2157 -1.1816
 1846WAT      O21536   4.016   3.362   2.117 -0.9588  0.1212 -0.3620
 1846WAT     H121537   3.967   3.411   2.183 -1.3115 -0.2920 -0.3152
 1846WAT     H221538   3.961   3.362   2.039 -0.8882 -0.0492 -0.4141
 1847WAT      O21539   5.242   4.173   1.077  0.1624  0.2885  0.3065
 1847WAT     H121540   5.300   4.113   1.124 -0.1357 -0.3398 -0.1108
 1847WAT     H221541   5.272   4.166   0.986 -0.4727  0.0696  0.1132
 1848WAT      O21542   3.432   1.460   7.091 -0.0737 -0.5921  0.0401
 1848WAT     H121543   3.338   1.481   7.090  0.1920  0.6399 -0.9432
 1848WAT     H221544   3.472   1.533   7.138  0.5745 -0.1924 -1.0914
 1849WAT      O21545   0.330   0.235   1.289  0.1753 -0.4588 -0.4879
 1849WAT     H121546   0.395   0.190   1.236  0.8150 -0.2017  0.0585
 1849WAT     H221547   0.312   0.176   1.362  0.7171 -0.0249  0.0141
 1850WAT      O21548   3.953   1.253   1.375 -0.4773 -0.3080  0.0023
 1850WAT     H121549   3.935   1.160   1.388 -0.8808 -0.3751 -0.9367
 1850WAT     H221550   3.878   1.297   1.415 -0.3412 -0.3836  0.3501
 1851WAT      O21551   5.871   4.491   6.445  0.4502 -0.5070  0.2561
 1851WAT     H121552   5.789   4.540   6.433  1.0626  0.6651  0.6777
 1851WAT     H221553   5.898   4.513   6.534  2.2581  0.7585 -0.5578
 1852WAT      O21554   1.847   5.900   1.852 -0.0629 -0.3029 -0.3577
 1852WAT     H121555   1.896   5.873   1.930 -1.2597 -1.2297  0.1024
 1852WAT     H221556   1.837   5.995   1.861  0.0800 -0.3587  0.4526
 1853WAT      O21557   0.697   1.245   0.717 -0.5766  0.5950  0.5325
 1853WAT     H121558   0.635   1.172   0.724  0.2058 -0.0271  1.3619
 1853WAT     H221559   0.767   1.211   0.661  0.4793  0.1736  2.0587
 1854WAT      O21560   0.712   5.471   6.140  0.1900  0.4953 -0.5074
 1854WAT     H121561   0.781   5.471   6.073  0.4357  1.5605 -0.2730
 1854WAT     H221562   0.667   5.554   6.128  1.6128  1.7573  2.0134
 1855WAT      O21563   0.655   4.057   6.537 -0.1470 -0.4891  0.1640
 1855WAT     H121564   0.747   4.079   6.526 -0.6677  0.9008 -2.1767
 1855WAT     H221565   0.629   4.104   6.616  1.0261 -0.5172  0.5870
 1856WAT      O21566   1.598   3.853   5.182 -0.5162 -0.1069  0.0049
 1856WAT     H121567   1.525   3.869   5.122 -0.6828  0.5119  0.3617
 1856WAT     H221568   1.588   3.919   5.250 -0.0306 -0.4731  0.4423
 1857WAT      O21569   4.131   0.074   7.650  0.8790  0.1755  0.2344
 1857WAT     H121570   4.080  -0.005   7.667  0.6622  0.2673  0.0198
 1857WAT     H221571   4.073   0.146   7.675  1.1723  0.2583  0.6759
 1858WAT      O21572   1.585   0.444   1.640  0.1728 -0.1168 -0.1549
 1858WAT     H121573   1.565   0.352   1.625 -0.4113 -0.2328  1.1973
 1858WAT     H221574   1.629   0.473   1.560 -0.5858 -1.2825 -1.0197
 1859WAT      O21575   1.298   5.532   6.899  0.3973 -0.1526 -0.0612
 1859WAT     H121576   1.296   5.628   6.898  1.1664 -0.1331 -0.8648
 1859WAT     H221577   1.245   5.506   6.824 -0.4217 -0.3866  0.5830
 1860WAT      O21578   1.693   1.548   5.853 -0.2329 -0.2132 -0.1182
 1860WAT     H121579   1.718   1.637   5.876 -0.9734 -0.2374  0.8170
 1860WAT     H221580   1.675   1.552   5.759 -1.1253  0.8304  0.0765
 1861WAT      O21581   2.743   0.101   7.159  0.1686  0.2970  0.1185
 1861WAT     H121582   2.813   0.145   7.111  1.6809 -0.9762  1.0349
 1861WAT     H221583   2.761   0.122   7.251  0.5520 -1.5845  0.5284
 1862WAT      O21584   0.291   4.481   0.151 -0.2255  0.6788  0.0200
 1862WAT     H121585   0.283   4.492   0.245 -2.7107  1.1432 -0.1621
 1862WAT     H221586   0.201   4.461   0.122  0.6300 -0.3865 -2.1350
 1863WAT      O21587   5.271   3.084   6.170  0.1774 -0.0003  0.0306
 1863WAT     H121588   5.186   3.127   6.170 -0.0481 -0.4190  1.3119
 1863WAT     H221589   5.303   3.096   6.080 -0.8340  0.9120 -0.2365
 1864WAT      O21590   6.194   1.122   7.810 -0.0359 -0.0418 -0.2491
 1864WAT     H121591   6.169   1.176   7.886  0.1859  1.1106 -0.9755
 1864WAT     H221592   6.111   1.097   7.770 -0.1841 -1.2389  0.7476
 1865WAT      O21593   1.065   2.392   1.392 -0.1187 -0.4377 -0.4744
 1865WAT     H121594   1.065   2.485   1.371 -0.8978 -0.7794 -2.0840
 1865WAT     H221595   1.134   2.383   1.458  3.2182  0.5814 -3.4749
 1866WAT      O21596   4.122   3.908   1.754 -0.2401  0.0760 -0.2528
 1866WAT     H121597   4.153   3.863   1.676 -0.4461  0.4219 -0.5315
 1866WAT     H221598   4.146   3.849   1.826 -0.5632 -0.5074 -0.6188
 1867WAT      O21599   0.862   2.703   2.068 -0.2525  0.2015  0.4800
 1867WAT     H121600   0.891   2.673   1.982  1.1661 -1.0318  1.3323
 1867WAT     H221601   0.798   2.638   2.097 -0.9666  0.7879  0.2353
 1868WAT      O21602   5.650   2.136   0.571 -0.5606 -0.0426 -0.3755
 1868WAT     H121603   5.716   2.189   0.614 -0.0297 -0.5425 -0.5564
 1868WAT     H221604   5.644   2.057   0.625 -0.9463 -0.0459 -0.4152
 1869WAT      O21605   4.649   4.234   7.828  0.0135  0.3242 -0.0726
 1869WAT     H121606   4.733   4.277   7.844  0.5904 -1.3546  1.8675
 1869WAT     H221607   4.587   4.306   7.817  1.7458  1.6070 -2.0685
 1870WAT      O21608   0.866   4.030   1.350 -0.3910 -0.4008 -0.0001
 1870WAT     H121609   0.837   3.999   1.436  1.4440 -0.5424  0.6193
 1870WAT     H221610   0.946   4.078   1.368  1.1950 -2.1765 -1.8368
 1871WAT      O21611   4.122   1.319   6.333 -0.0130  0.2682 -0.2338
 1871WAT     H121612   4.103   1.409   6.305  0.4048  0.5964  0.4837
 1871WAT     H221613   4.214   1.322   6.361 -0.0734 -0.3187  0.0386
 1872WAT      O21614   4.348   1.005   7.289 -0.4597  0.4179  0.3635
 1872WAT     H121615   4.396   0.926   7.316  0.2856  0.5154 -0.6378
 1872WAT     H221616   4.339   1.056   7.370  2.9512  1.3594  0.2970
 1873WAT      O21617   3.454   3.754   7.050 -0.0311 -0.3776  0.4156
 1873WAT     H121618   3.472   3.664   7.076  0.4515 -0.2572  0.5213
 1873WAT     H221619   3.410   3.793   7.125  0.6417 -0.2558  0.7566
 1874WAT      O21620   1.195   4.037   1.026  0.1049 -0.1725  0.3065
 1874WAT     H121621   1.195   4.130   1.003 -2.1657 -0.3517 -0.6078
 1874WAT     H221622   1.156   4.034   1.113  0.2466 -0.2755  0.3670
 1875WAT      O21623   1.111   3.092   7.360  0.6045  0.0110 -0.0976
 1875WAT     H121624   1.067   3.122   7.440  2.1977  1.1525  0.4006
 1875WAT     H221625   1.073   3.145   7.290  0.9281  0.7574  0.2788
 1876WAT      O21626   2.284   5.259   1.513 -0.3963 -0.0124 -0.1617
 1876WAT     H121627   2.306   5.352   1.513 -0.1842 -0.0517 -1.4666
 1876WAT     H221628   2.258   5.241   1.604 -0.9917  1.4441 -0.0139
 1877WAT      O21629   6.164   2.778   7.289 -0.0699 -0.0461  0.5008
 1877WAT     H121630   6.193   2.735   7.208  0.3273 -3.6766  2.3330
 1877WAT     H221631   6.244   2.785   7.341 -0.6632  0.3545  1.3630
 1878WAT      O21632   6.077   5.130   6.429  0.1039  0.0069 -0.7322
 1878WAT     H121633   6.090   5.132   6.524  0.9340 -1.8639 -0.7730
 1878WAT     H221634   6.136   5.198   6.396 -0.9931  1.4354  0.1250
 1879WAT      O21635   0.652   4.893   7.268 -0.3453 -0.0132  0.0140
 1879WAT     H121636   0.629   4.911   7.359 -0.6899  0.5262 -0.1741
 1879WAT     H221637   0.731   4.946   7.253 -0.2518 -0.1506  0.0158
 1880WAT      O21638   5.126   1.625   7.462 -0.1707 -0.0814  0.4214
 1880WAT     H121639   5.083   1.632   7.377 -0.0213 -1.8989  0.1576
 1880WAT     H221640   5.167   1.711   7.476 -1.3769  0.7011 -0.6686
 1881WAT      O21641   2.973   0.021   0.607  0.2814  0.3014  0.2021
 1881WAT     H121642   2.923   0.092   0.567 -1.3053 -0.4458  0.7705
 1881WAT     H221643   3.062   0.032   0.574 -0.0977  2.0977 -0.2988
 1882WAT      O21644   2.301   1.894   1.651  0.3229  0.4284  0.5340
 1882WAT     H121645   2.348   1.820   1.690 -0.8843 -0.1380  0.9702
 1882WAT     H221646   2.225   1.907   1.708  1.2047  2.9160  1.2977
 1883WAT      O21647   0.688   3.871   1.963  0.4020  0.2894  0.1762
 1883WAT     H121648   0.776   3.889   1.929  0.7383  1.8659  1.7367
 1883WAT     H221649   0.695   3.889   2.056 -1.1535 -1.3057  0.6432
 1884WAT      O21650   4.785   0.291   0.335 -0.1173  0.3769  0.1054
 1884WAT     H121651   4.773   0.341   0.415  0.2407  1.0400 -0.2442
 1884WAT     H221652   4.714   0.227   0.335 -0.6062  0.9170  0.5445
 1885WAT      O21653   0.653   4.429   0.216  1.1234 -0.2219 -0.0562
 1885WAT     H121654   0.695   4.510   0.245  0.2322  0.7227 -1.3019
 1885WAT     H221655   0.638   4.380   0.297  0.2262  1.5650  0.9426
 1886WAT      O21656   5.137   1.887   7.083  0.2369  0.0787  0.2994
 1886WAT     H121657   5.227   1.859   7.070  0.1384 -0.0075 -0.2339
 1886WAT     H221658   5.133   1.973   7.042 -0.5288 -0.9375 -1.9491
 1887WAT      O21659   3.011   6.201   7.381 -0.9829  0.3027  0.5032
 1887WAT     H121660   3.075   6.151   7.431  0.4503 -0.0600 -1.5293
 1887WAT     H221661   2.947   6.136   7.353 -1.4382  0.3941  1.3094
 1888WAT      O21662   3.677   0.390   7.637  0.2096  0.2143  0.0233
 1888WAT     H121663   3.681   0.485   7.622  1.3993  0.1280 -0.2909
 1888WAT     H221664   3.729   0.352   7.567  0.3547 -0.6298  0.5678
 1889WAT      O21665   5.133   5.086   7.849 -0.2427 -0.4972  0.4943
 1889WAT     H121666   5.080   5.110   7.772  0.0019 -0.7660  0.2384
 1889WAT     H221667   5.205   5.035   7.813  0.8253  0.8100  0.6957
 1890WAT      O21668   3.753   5.956   6.021 -0.0383 -0.2950 -0.2369
 1890WAT     H121669   3.661   5.932   6.027 -0.1401 -0.9421 -3.0557
 1890WAT     H221670   3.791   5.891   5.962  1.6703  1.3820 -1.0954
 1891WAT      O21671   1.740   4.344   7.340 -0.2718 -0.6028 -0.0212
 1891WAT     H121672   1.806   4.412   7.350  0.6024 -1.6585  1.9047
 1891WAT     H221673   1.761   4.302   7.257  0.5130  0.0605 -0.1697
 1892WAT      O21674   2.508   2.090   7.797  0.2411  0.0941  0.3307
 1892WAT     H121675   2.418   2.123   7.794  0.7986  1.6267 -1.4913
 1892WAT     H221676   2.560   2.165   7.826  0.8458 -1.1467  2.7012
 1893WAT      O21677   0.987   4.756   7.403 -0.1039  0.0755 -0.4497
 1893WAT     H121678   0.921   4.725   7.464 -1.2506 -0.2314 -1.8053
 1893WAT     H221679   1.005   4.846   7.430 -1.8369  0.5129 -0.6674
 1894WAT      O21680   0.621   3.635   1.302 -0.5843  0.0181  0.4198
 1894WAT     H121681   0.580   3.620   1.387  0.5186  1.9203  1.3444
 1894WAT     H221682   0.551   3.666   1.246 -0.9111  0.8524  1.2737
 1895WAT      O21683   0.260   5.027   7.237 -0.0816  0.1307 -0.3763
 1895WAT     H121684   0.303   4.941   7.239 -1.0909 -0.4279 -1.4883
 1895WAT     H221685   0.212   5.031   7.320  0.1432 -0.2862 -0.2210
 1896WAT      O21686   5.916   2.600   6.429  0.7888 -0.2552 -0.2607
 1896WAT     H121687   5.914   2.609   6.525  1.4100  1.5998 -0.3748
 1896WAT     H221688   5.893   2.508   6.413 -1.9711 -0.0047  1.5334
 1897WAT      O21689   1.831   1.370   0.539  0.1074 -1.0606  0.2337
 1897WAT     H121690   1.884   1.386   0.460 -0.7355  0.5537 -0.0332
 1897WAT     H221691   1.895   1.367   0.610  0.6742 -0.0475 -0.2065
 1898WAT      O21692   1.190   5.415   5.999 -0.3730 -0.6856 -0.1197
 1898WAT     H121693   1.194   5.319   6.003  0.7101 -0.6995 -0.8850
 1898WAT     H221694   1.280   5.441   5.977 -0.6857  0.4989 -0.0538
 1899WAT      O21695   6.038   2.873   1.185  0.4233  0.2386  0.3401
 1899WAT     H121696   5.990   2.908   1.260  0.7122  0.4061  0.4484
 1899WAT     H221697   5.969   2.849   1.122  0.1611 -0.2733  0.8142
 1900WAT      O21698   5.748   2.444   5.438 -0.3536  0.4111  0.3081
 1900WAT     H121699   5.712   2.358   5.461 -1.6552  0.4516 -1.3754
 1900WAT     H221700   5.690   2.476   5.368  1.1989  1.8452 -0.3830
 1901WAT      O21701   0.319   6.211   5.386  0.1549 -0.2590  0.2141
 1901WAT     H121702   0.224   6.214   5.379  0.0070 -1.5427  1.1713
 1901WAT     H221703   0.348   6.299   5.364 -1.1312 -0.2164 -1.5356
 1902WAT      O21704   2.262   5.204   1.778 -0.6494 -0.3054  0.1677
 1902WAT     H121705   2.321   5.154   1.835  0.5738  0.8957 -0.0023
 1902WAT     H221706   2.184   5.220   1.831 -0.6383 -1.4541  0.5762
 1903WAT      O21707   0.066   4.486   7.371  0.4712 -0.1214  0.3237
 1903WAT     H121708  -0.028   4.466   7.376  0.8799 -2.2422  0.4721
 1903WAT     H221709   0.071   4.564   7.316 -1.5330  1.5916  2.4127
 1904WAT      O21710   5.806   1.220   6.955 -0.2729  0.0255 -0.2442
 1904WAT     H121711   5.785   1.176   6.873  1.2809  0.4415 -0.9153
 1904WAT     H221712   5.844   1.152   7.010 -0.3646 -0.0429 -0.2672
 1905WAT      O21713   4.384   3.645   0.845 -0.2258 -0.5141 -0.0266
 1905WAT     H121714   4.386   3.549   0.841  1.4540 -0.4776 -3.3834
 1905WAT     H221715   4.420   3.666   0.932  1.3651 -2.9303  0.0078
 1906WAT      O21716   1.850   0.605   0.772  0.2493  0.4922 -0.0742
 1906WAT     H121717   1.794   0.550   0.828  1.2232  2.1390  2.7343
 1906WAT     H221718   1.795   0.680   0.749  0.7038  1.2861  1.2881
 1907WAT      O21719   4.842   4.773   7.660  0.1415 -0.0154 -0.1145
 1907WAT     H121720   4.880   4.761   7.573  0.3334 -0.8218  0.0712
 1907WAT     H221721   4.912   4.750   7.720 -0.1574  0.0108  0.2484
 1908WAT      O21722   3.918   0.529   0.285  0.0260  0.1621 -0.1383
 1908WAT     H121723   3.826   0.518   0.263 -0.5480  1.0436  1.6182
 1908WAT     H221724   3.964   0.465   0.231 -1.6523 -0.5318 -0.7929
 1909WAT      O21725   3.510   4.069   7.119 -0.5004 -0.2911  0.1528
 1909WAT     H121726   3.562   4.146   7.144  0.7528 -1.5595  1.6861
 1909WAT     H221727   3.548   3.998   7.169 -2.0397 -1.8179 -0.7531
 1910WAT      O21728   0.235   5.636   0.893  0.2840 -0.1669 -0.7922
 1910WAT     H121729   0.151   5.593   0.875 -0.7989  0.9266  1.3227
 1910WAT     H221730   0.266   5.663   0.806 -1.8369 -0.0841 -1.5938
 1911WAT      O21731   4.656   4.595   0.592 -0.0848 -0.0085  0.5744
 1911WAT     H121732   4.718   4.528   0.621 -1.4826 -0.7060  2.1197
 1911WAT     H221733   4.622   4.562   0.509  1.0244  0.0122  0.0960
 1912WAT      O21734   5.405   1.843   7.002 -0.3059  0.5015  0.1311
 1912WAT     H121735   5.415   1.768   6.943 -0.9228  0.5452 -0.0408
 1912WAT     H221736   5.431   1.919   6.949 -0.8093  0.5348 -0.0747
 1913WAT      O21737   5.206   3.863   7.316  0.3881  0.5830 -0.7632
 1913WAT     H121738   5.163   3.780   7.299  2.1606 -0.5932  0.2516
 1913WAT     H221739   5.282   3.841   7.370 -0.0181  3.0509  0.9598
 1914WAT      O21740   2.324   2.956   7.796 -1.0055  0.5297 -0.7260
 1914WAT     H121741   2.245   2.946   7.848  0.0982 -0.1808  0.8911
 1914WAT     H221742   2.323   2.880   7.737 -2.1395  1.2079 -1.6201
 1915WAT      O21743   6.118   5.000   7.657  0.2160  0.2624 -0.3103
 1915WAT     H121744   6.182   5.001   7.729 -0.4550 -0.3856  0.3183
 1915WAT     H221745   6.168   5.026   7.580  1.5190 -1.2712 -0.0469
 1916WAT      O21746   4.041   5.539   1.534  0.2263  0.0369  0.2302
 1916WAT     H121747   3.958   5.530   1.582  0.9055 -1.6736  1.1698
 1916WAT     H221748   4.097   5.588   1.594  0.1856  0.4281 -0.0463
 1917WAT      O21749   2.375   3.780   0.665 -0.1099 -0.4604  0.5464
 1917WAT     H121750   2.337   3.718   0.603 -1.9894 -0.2688  1.4460
 1917WAT     H221751   2.462   3.746   0.682 -0.6821 -2.2129  0.1405
 1918WAT      O21752   4.681   0.632   0.335 -0.2221  0.1760 -0.0953
 1918WAT     H121753   4.689   0.560   0.399 -1.8407  0.0021 -0.0407
 1918WAT     H221754   4.715   0.595   0.254  1.1347  0.1367  0.4777
 1919WAT      O21755   5.208   6.102   0.669  0.2166  0.1310  0.1754
 1919WAT     H121756   5.189   6.119   0.761  0.9226  1.0225  0.1657
 1919WAT     H221757   5.122   6.093   0.628 -0.1108  0.2615  0.8168
 1920WAT      O21758   2.894   1.938   5.730  0.3747 -0.0599  0.0543
 1920WAT     H121759   2.852   1.860   5.767 -0.5899 -0.0137 -0.8826
 1920WAT     H221760   2.966   1.904   5.677  0.0281 -0.3091 -0.2589
 1921WAT      O21761   2.959   4.505   0.035  0.1123 -0.0724  0.0133
 1921WAT     H121762   2.904   4.535   0.108  0.9859 -0.6914  0.9546
 1921WAT     H221763   3.046   4.538   0.056  0.4068 -0.4127 -0.6592
 1922WAT      O21764   0.513   5.532   7.143 -0.7199  0.1579  0.6919
 1922WAT     H121765   0.470   5.588   7.207 -2.0912  0.5797 -0.5242
 1922WAT     H221766   0.470   5.447   7.153 -1.2657  0.3477  0.0589
 1923WAT      O21767   3.107   4.820   1.545 -0.4296  0.3371 -0.5451
 1923WAT     H121768   3.125   4.912   1.567 -0.5963  0.5519 -1.2802
 1923WAT     H221769   3.024   4.801   1.589  0.1984  0.1661  0.6013
 1924WAT      O21770   3.357   2.038   6.372  0.4035  0.1479  0.1225
 1924WAT     H121771   3.387   2.030   6.462  0.7978 -0.4801 -0.0557
 1924WAT     H221772   3.356   2.132   6.355 -0.0086  0.2928  0.8902
 1925WAT      O21773   0.364   0.291   0.058  0.2516  0.6040  0.1035
 1925WAT     H121774   0.312   0.301   0.137  1.1992 -0.5174  0.8987
 1925WAT     H221775   0.423   0.218   0.076  0.7053  0.5159 -1.5262
 1926WAT      O21776   2.669   1.786   1.108 -0.7020 -0.3313 -0.5256
 1926WAT     H121777   2.691   1.773   1.016  2.5522  0.0610  0.1006
 1926WAT     H221778   2.750   1.766   1.155 -1.7722  1.1703  2.1270
 1927WAT      O21779   5.568   3.184   6.053 -0.0899  0.1727 -0.2514
 1927WAT     H121780   5.560   3.259   5.995 -1.3385  0.9785  0.9037
 1927WAT     H221781   5.495   3.127   6.030 -1.1470  0.9191  1.0338
 1928WAT      O21782   2.510   1.745   1.701  0.4856 -0.0322 -0.4743
 1928WAT     H121783   2.547   1.662   1.673 -1.2281 -0.3652 -1.9666
 1928WAT     H221784   2.548   1.810   1.641  1.5017  0.2237  0.4218
 1929WAT      O21785   2.859   2.459   7.471 -0.3760 -0.8290  0.6150
 1929WAT     H121786   2.800   2.422   7.536 -1.3140 -0.0586  0.2322
 1929WAT     H221787   2.801   2.487   7.400  0.1129  2.3733  1.3244
 1930WAT      O21788   4.543   3.308   1.181 -0.4248  0.0989 -0.6558
 1930WAT     H121789   4.586   3.224   1.201 -1.4616  0.0489  1.7022
 1930WAT     H221790   4.613   3.373   1.190 -0.1985 -0.2538  0.2306
 1931WAT      O21791   0.886   5.466   2.224  0.1428  0.1924 -0.1007
 1931WAT     H121792   0.855   5.388   2.178 -1.1745  0.6482 -0.0166
 1931WAT     H221793   0.960   5.496   2.171 -2.1633  1.5192 -2.8878
 1932WAT      O21794   0.705   0.368   5.981  0.6151  0.0043 -0.1537
 1932WAT     H121795   0.743   0.290   6.022  1.2671  1.2726  1.8270
 1932WAT     H221796   0.781   0.419   5.952  0.2146  0.2420 -0.8244
 1933WAT      O21797   6.184   5.557   1.458 -0.0773 -0.1486  0.4402
 1933WAT     H121798   6.213   5.587   1.545  2.1105 -0.8832  0.0028
 1933WAT     H221799   6.095   5.524   1.473 -0.8226  2.2282  1.8407
 1934WAT      O21800   2.562   5.981   6.055  0.2982 -0.1957  0.4350
 1934WAT     H121801   2.602   5.962   5.971 -0.0996  1.6844 -0.2439
 1934WAT     H221802   2.626   6.037   6.100  0.8374 -1.7781  1.7355
 1935WAT      O21803   2.636   1.632   7.491 -0.4391  0.6812 -0.0205
 1935WAT     H121804   2.594   1.571   7.551 -0.5216  1.6527  0.9464
 1935WAT     H221805   2.720   1.653   7.533 -0.4365  1.2680 -0.3068
 1936WAT      O21806   5.299   5.498   7.080  0.0931 -0.2844 -0.0283
 1936WAT     H121807   5.361   5.564   7.110  0.6476  0.0626 -1.8575
 1936WAT     H221808   5.352   5.436   7.030 -0.9002 -0.4343 -0.9351
 1937WAT      O21809   2.632   5.947   7.600 -0.3145 -0.4306  0.5442
 1937WAT     H121810   2.696   5.984   7.661  0.9289  0.2250 -1.1025
 1937WAT     H221811   2.588   5.878   7.651  1.0455 -0.2756  2.0108
 1938WAT      O21812   4.356   5.891   0.591  0.3925  0.2987  0.6010
 1938WAT     H121813   4.426   5.856   0.646  0.0738 -0.3085  0.6206
 1938WAT     H221814   4.296   5.818   0.578 -1.0725  1.1801  1.8955
 1939WAT      O21815   1.776   5.577   0.763 -0.2907  0.5998  0.6706
 1939WAT     H121816   1.724   5.647   0.802  0.1733  1.4354 -0.1659
 1939WAT     H221817   1.721   5.498   0.772 -1.6339  1.4172 -0.0568
 1940WAT      O21818   2.281   6.110   0.026 -0.1966  0.0680  0.2517
 1940WAT     H121819   2.338   6.039   0.055  0.1947  0.5635  0.7078
 1940WAT     H221820   2.236   6.140   0.105 -0.0999  0.5603  0.1238
 1941WAT      O21821   3.148   0.160   6.498  0.6255  0.0604  0.6915
 1941WAT     H121822   3.123   0.086   6.553  1.2208 -0.0728  0.7927
 1941WAT     H221823   3.102   0.235   6.536 -0.7566 -0.4129 -0.0010
 1942WAT      O21824   3.622   1.739   7.610 -0.2673 -0.6053  0.0697
 1942WAT     H121825   3.570   1.807   7.652  0.9091 -0.3639  1.2147
 1942WAT     H221826   3.660   1.781   7.532  1.3690  0.4600  1.3729
 1943WAT      O21827   2.896   3.182   0.074  0.0874  0.3673 -0.1261
 1943WAT     H121828   2.943   3.105   0.042  0.4240  0.3855  0.3172
 1943WAT     H221829   2.861   3.155   0.159  1.0381  1.0158  0.4848
 1944WAT      O21830   0.357   2.424   7.926  0.4919 -0.0738 -0.4606
 1944WAT     H121831   0.346   2.391   7.837 -0.3682 -1.5461  0.1572
 1944WAT     H221832   0.387   2.348   7.976  0.0893  0.4979  0.6829
 1945WAT      O21833   1.597   0.532   1.180 -0.1068 -0.5325  0.1899
 1945WAT     H121834   1.564   0.594   1.114  0.1504 -0.7913 -0.1904
 1945WAT     H221835   1.628   0.588   1.251 -0.7492 -0.2618  0.2642
 1946WAT      O21836   2.705   5.199   1.406 -0.2117 -0.0867 -0.1580
 1946WAT     H121837   2.648   5.243   1.344 -1.8651 -0.6605  0.8691
 1946WAT     H221838   2.749   5.269   1.453  0.0430  0.3703 -1.0587
 1947WAT      O21839   5.018   3.631   7.221  0.2927  0.4143 -1.3471
 1947WAT     H121840   5.007   3.535   7.223  0.1319  0.4228  0.7792
 1947WAT     H221841   5.065   3.648   7.140 -0.0926 -1.4228 -2.0136
 1948WAT      O21842   2.125   0.930   6.558 -0.1169 -0.2346 -0.0429
 1948WAT     H121843   2.152   1.003   6.502 -1.7359 -0.3664 -1.0533
 1948WAT     H221844   2.163   0.853   6.516  1.2723 -0.0467  0.8114
 1949WAT      O21845   5.575   2.468   6.860  0.2103 -0.0839 -0.2320
 1949WAT     H121846   5.636   2.448   6.931  0.4128  1.9736  0.2389
 1949WAT     H221847   5.499   2.412   6.877  1.6704 -2.3019 -0.5203
 1950WAT      O21848   3.280   1.882   0.826  0.0807 -0.1636 -0.0388
 1950WAT     H121849   3.303   1.791   0.809 -0.6063 -0.4986  0.7331
 1950WAT     H221850   3.193   1.878   0.867  0.5220  0.7531  1.0594
 1951WAT      O21851   5.856   1.262   0.092  0.9009  0.1185  0.0093
 1951WAT     H121852   5.906   1.181   0.096  1.7453  0.5580 -0.9727
 1951WAT     H221853   5.864   1.300   0.180 -0.4412 -1.3579  0.8313
 1952WAT      O21854   1.442   5.518   1.355  0.0228 -0.2333  0.1451
 1952WAT     H121855   1.420   5.596   1.406  0.3309 -1.3088  2.0037
 1952WAT     H221856   1.361   5.495   1.309  0.1574  1.6371 -1.1281
 1953WAT      O21857   1.469   1.034   5.811  0.3176 -0.3878 -0.3825
 1953WAT     H121858   1.376   1.031   5.833  0.3668 -0.1460 -0.1314
 1953WAT     H221859   1.481   1.121   5.773  0.4243 -0.4496 -0.4903
 1954WAT      O21860   0.412   2.303   1.147  0.4621 -0.1214  0.4164
 1954WAT     H121861   0.476   2.240   1.181 -0.7020 -0.6084  1.8128
 1954WAT     H221862   0.437   2.387   1.185  0.0051 -0.4004  1.3500
 1955WAT      O21863   5.399   3.579   6.713 -0.3256 -0.1104  0.2442
 1955WAT     H121864   5.428   3.509   6.771 -0.0124 -0.1659  0.0218
 1955WAT     H221865   5.441   3.561   6.629 -2.9494 -1.6380 -0.8752
 1956WAT      O21866   6.016   2.192   6.559 -0.4001 -0.0563  0.1782
 1956WAT     H121867   5.944   2.241   6.518 -0.9876 -0.2202  0.9795
 1956WAT     H221868   6.069   2.162   6.485 -1.7310 -0.8095 -0.5186
 1957WAT      O21869   5.616   5.333   0.554  0.1782 -0.1142  0.1552
 1957WAT     H121870   5.605   5.291   0.468  1.8051  0.7726 -0.5307
 1957WAT     H221871   5.681   5.280   0.599  1.4768  1.0235 -0.3195
 1958WAT      O21872   0.991   4.246   6.128 -0.2313 -0.0532 -0.2024
 1958WAT     H121873   0.912   4.192   6.116  0.2684 -1.1956  1.4243
 1958WAT     H221874   1.041   4.233   6.047 -0.2395 -1.8718  0.0463
 1959WAT      O21875   4.747   3.840   6.409  0.0248  0.9570 -0.3284
 1959WAT     H121876   4.724   3.766   6.465  0.4095  0.4353 -0.8521
 1959WAT     H221877   4.766   3.801   6.324 -2.0586  1.8662 -1.2862
 1960WAT      O21878   1.871   1.483   7.325 -0.0177  0.1452  0.3369
 1960WAT     H121879   1.905   1.571   7.311 -2.2049  1.1089  0.7793
 1960WAT     H221880   1.924   1.448   7.398  1.3663  0.7653 -0.3419
 1961WAT      O21881   5.901   0.893   1.895  0.0600  0.3100 -0.2981
 1961WAT     H121882   5.874   0.842   1.971 -0.9888  1.5181  0.1875
 1961WAT     H221883   5.922   0.980   1.930  0.9423  0.4785 -1.1995
 1962WAT      O21884   2.029   0.399   0.633 -0.0035 -0.0290 -0.1829
 1962WAT     H121885   2.037   0.476   0.688  1.1896 -0.3963  0.1911
 1962WAT     H221886   1.945   0.409   0.588  0.6389  2.0534 -1.0119
 1963WAT      O21887   2.492   0.215   7.092 -0.0778 -0.3486 -0.1311
 1963WAT     H121888   2.472   0.142   7.151  0.7930 -1.6550 -1.3884
 1963WAT     H221889   2.583   0.237   7.111  0.3130 -0.9962 -1.1848
 1964WAT      O21890   0.594   1.131   0.263 -0.4389  0.1214 -0.1376
 1964WAT     H121891   0.634   1.047   0.285  0.9217  0.8451  0.2090
 1964WAT     H221892   0.514   1.107   0.215  0.2478 -1.3565 -0.6058
 1965WAT      O21893   1.756   3.660   1.671  0.3874 -0.4717 -0.4660
 1965WAT     H121894   1.675   3.616   1.644 -0.6080  2.1716 -2.2394
 1965WAT     H221895   1.728   3.748   1.695  2.7634  0.7461 -1.7453
 1966WAT      O21896   3.826   0.882   6.405  0.6135  0.0880 -0.5226
 1966WAT     H121897   3.857   0.887   6.314  2.3586 -0.1938  0.0151
 1966WAT     H221898   3.738   0.846   6.399  1.0374 -0.7578 -2.0554
 1967WAT      O21899   2.264   3.202   6.685 -0.4224 -0.2046  0.0696
 1967WAT     H121900   2.261   3.112   6.652  1.2127 -0.1093 -0.4724
 1967WAT     H221901   2.217   3.253   6.619  0.4705 -0.3932 -0.7356
 1968WAT      O21902   1.258   2.216   0.759  0.2890  0.1988  0.0297
 1968WAT     H121903   1.301   2.264   0.688 -0.9378 -0.1267 -0.9695
 1968WAT     H221904   1.271   2.124   0.736  1.0528  0.0551  0.9687
 1969WAT      O21905   3.209   3.394   7.466 -0.0844  0.0356  0.1982
 1969WAT     H121906   3.291   3.359   7.430  0.4979  0.4400  1.1178
 1969WAT     H221907   3.177   3.455   7.399  0.1754 -0.3926 -0.3207
 1970WAT      O21908   1.622   2.731   0.204 -0.0422  0.4347 -0.2978
 1970WAT     H121909   1.567   2.704   0.277  2.0937  0.3643  1.4137
 1970WAT     H221910   1.626   2.655   0.146 -0.1886 -0.2196  0.5469
 1971WAT      O21911   2.654   0.186   1.407  0.8786 -0.2129  0.1892
 1971WAT     H121912   2.579   0.215   1.458  0.6124  1.7214 -1.2063
 1971WAT     H221913   2.722   0.251   1.425  1.0008  0.1149 -1.3423
 1972WAT      O21914   1.380   4.746   7.941 -0.4310 -0.0299  0.1363
 1972WAT     H121915   1.382   4.699   7.858 -2.7372 -1.3619  0.7619
 1972WAT     H221916   1.355   4.836   7.917  0.4888  0.0081 -0.7280
 1973WAT      O21917   0.420   4.947   5.842  0.6804 -0.0550 -0.5567
 1973WAT     H121918   0.423   4.987   5.928 -1.1115 -1.0220 -0.0008
 1973WAT     H221919   0.453   5.014   5.783 -0.1894  1.4552  0.6016
 1974WAT      O21920   5.887   5.445   0.836 -0.4678  0.2471 -0.1063
 1974WAT     H121921   5.933   5.444   0.752 -3.0185  1.6033 -1.6618
 1974WAT     H221922   5.920   5.368   0.883 -0.5182 -1.8979 -3.2693
 1975WAT      O21923   1.474   3.992   7.509  0.0150 -0.9746 -0.1652
 1975WAT     H121924   1.416   4.052   7.556  1.4460  0.7664 -0.4816
 1975WAT     H221925   1.522   3.946   7.578 -1.0893 -1.8130  0.0806
 1976WAT      O21926   4.613   0.999   1.057 -0.0586  0.1332  0.0251
 1976WAT     H121927   4.546   0.946   1.100  0.3929 -0.4796 -0.0152
 1976WAT     H221928   4.589   0.998   0.964 -0.2129  0.2357  0.0642
 1977WAT      O21929   0.446   5.640   7.729  0.4324  0.7647  0.2022
 1977WAT     H121930   0.410   5.574   7.789  1.9653 -1.5468 -1.2525
 1977WAT     H221931   0.489   5.703   7.786  0.6593 -0.6010  1.6148
 1978WAT      O21932   1.485   1.880   6.594 -0.3887  0.3843  0.1340
 1978WAT     H121933   1.542   1.956   6.580  0.1685  0.2962  1.7563
 1978WAT     H221934   1.505   1.822   6.521 -0.6810  1.6971 -1.0361
 1979WAT      O21935   1.276   5.199   7.483  0.2565 -0.2419  0.1765
 1979WAT     H121936   1.323   5.156   7.555 -0.1176 -3.4069 -1.2838
 1979WAT     H221937   1.344   5.247   7.436  1.6539 -2.5291 -0.3381
 1980WAT      O21938   0.386   1.040   5.814  0.4179  0.1077 -0.1319
 1980WAT     H121939   0.403   1.103   5.884  0.4278  0.4392 -0.4286
 1980WAT     H221940   0.333   0.972   5.856 -0.8240  1.0290 -0.1406
 1981WAT      O21941   4.185   2.103   7.094 -0.1842  0.8080 -0.1811
 1981WAT     H121942   4.270   2.139   7.069 -0.4210  1.3927 -0.1593
 1981WAT     H221943   4.206   2.029   7.150  0.3025  1.4656  0.5204
 1982WAT      O21944   0.615   4.294   1.010  0.1581  0.0728 -0.3999
 1982WAT     H121945   0.640   4.208   1.045 -1.3140  0.6080  2.1801
 1982WAT     H221946   0.690   4.350   1.028  0.5230 -0.2895 -0.7401
 1983WAT      O21947   2.537   2.328   5.607  0.4305  0.0504  0.0516
 1983WAT     H121948   2.486   2.378   5.543 -0.2910 -1.1008 -0.3000
 1983WAT     H221949   2.473   2.303   5.675  0.7870 -0.3393  0.2500
 1984WAT      O21950   4.437   4.658   1.048  0.1254 -0.2080 -0.2136
 1984WAT     H121951   4.400   4.736   1.089 -0.3695  0.2292 -1.4329
 1984WAT     H221952   4.530   4.679   1.037  0.1169 -0.0403  0.0210
 1985WAT      O21953   0.679   5.878   6.473 -0.0624 -0.5081 -0.1358
 1985WAT     H121954   0.590   5.876   6.508  0.0206 -0.7451  0.0638
 1985WAT     H221955   0.675   5.940   6.400 -0.6739 -1.4497 -0.9086
 1986WAT      O21956   0.480   2.980   7.853  0.3071  0.0022  0.1908
 1986WAT     H121957   0.530   2.901   7.831  1.1537  0.9462 -1.4939
 1986WAT     H221958   0.513   3.007   7.939  1.4268 -0.3812 -0.1090
 1987WAT      O21959   1.606   4.099   6.223 -0.0023  0.1775  0.1559
 1987WAT     H121960   1.562   4.113   6.306 -0.9221 -1.1611 -0.0755
 1987WAT     H221961   1.535   4.082   6.161  0.7425 -0.3723 -0.5718
 1988WAT      O21962   1.008   2.101   7.486  0.4010 -0.2455  0.3405
 1988WAT     H121963   1.014   2.006   7.496  1.5754 -0.0360  1.8252
 1988WAT     H221964   1.073   2.136   7.546  1.5717  1.4605 -1.7711
 1989WAT      O21965   3.503   5.201   6.741  0.0865 -0.1611 -0.4162
 1989WAT     H121966   3.489   5.120   6.790  0.9780 -1.6340 -2.4524
 1989WAT     H221967   3.465   5.184   6.655  0.4295  1.5486 -0.9504
 1990WAT      O21968   3.158   5.474   7.499 -0.0588  0.1587 -0.2532
 1990WAT     H121969   3.086   5.437   7.448 -1.8752  2.0516  0.7561
 1990WAT     H221970   3.115   5.529   7.565  2.3127  1.5420  0.2808
 1991WAT      O21971   4.185   4.990   1.414  0.3771  0.5412 -0.5009
 1991WAT     H121972   4.099   4.961   1.383 -1.4447  3.0703  1.6990
 1991WAT     H221973   4.207   4.929   1.484 -0.2900  0.6596 -0.1797
 1992WAT      O21974   4.305   2.481   7.735 -0.0982 -0.5084 -0.4315
 1992WAT     H121975   4.339   2.400   7.698 -0.0199 -0.2036 -1.0481
 1992WAT     H221976   4.213   2.463   7.755 -0.3965 -0.4173 -1.6316
 1993WAT      O21977   4.190   3.903   7.096  0.2309 -0.4561  0.0680
 1993WAT     H121978   4.179   3.918   7.002 -0.2057  1.0263  0.3266
 1993WAT     H221979   4.101   3.897   7.129  0.3586 -2.9561  0.1512
 1994WAT      O21980   1.891   2.803   6.738  0.2677  0.3035  0.0856
 1994WAT     H121981   1.815   2.761   6.776  0.9527  1.0583  2.5055
 1994WAT     H221982   1.861   2.890   6.712 -0.3432 -0.4170 -1.7716
 1995WAT      O21983   1.441   3.797   0.899  0.3810  0.2141  0.0444
 1995WAT     H121984   1.387   3.850   0.959  0.1961 -0.2122  0.2578
 1995WAT     H221985   1.518   3.852   0.881 -1.1675  1.8713 -2.1492
 1996WAT      O21986   4.611   1.039   6.862  0.1430 -0.4155 -0.5722
 1996WAT     H121987   4.546   1.097   6.901 -0.2240  0.0040 -1.7887
 1996WAT     H221988   4.674   1.098   6.820  0.1650 -0.8680 -1.1921
 1997WAT      O21989   1.696   1.281   7.697 -0.2165  0.5994 -0.0281
 1997WAT     H121990   1.608   1.246   7.709  0.7162 -1.8908  0.1920
 1997WAT     H221991   1.683   1.374   7.683 -2.7621  0.5968  1.6260
 1998WAT      O21992   5.762   3.065   1.388  0.1769 -0.1393 -0.0465
 1998WAT     H121993   5.797   2.989   1.435  2.3064  0.9290  0.2439
 1998WAT     H221994   5.812   3.140   1.423 -0.2117  1.0839 -1.9394
 1999WAT      O21995   2.740   1.697   0.865 -0.3948 -0.0597  0.1202
 1999WAT     H121996   2.761   1.629   0.801  1.8158  0.6317  0.0548
 1999WAT     H221997   2.745   1.779   0.817 -1.6896  0.2792  0.5193
 2000WAT      O21998   2.062   1.972   1.532  0.8871  0.0942  0.1850
 2000WAT     H121999   2.151   1.979   1.566  0.4501  0.7676  1.2621
 2000WAT     H222000   2.012   1.931   1.603  0.0792  0.8907  0.0969
 2001WAT      O22001   6.148   1.885   7.701  0.3344  0.2186 -0.5203
 2001WAT     H122002   6.090   1.843   7.637  0.6702  0.6808 -1.1378
 2001WAT     H222003   6.209   1.816   7.725 -0.7021 -0.3907  0.4400
 2002WAT      O22004   1.391   3.481   6.843 -0.3885 -0.0540  0.1389
 2002WAT     H122005   1.399   3.512   6.753  1.2668  0.7903  0.5469
 2002WAT     H222006   1.459   3.414   6.852 -1.3203 -0.9961  0.4391
 2003WAT      O22007   4.671   0.548   1.361 -0.1985 -0.1393 -0.1141
 2003WAT     H122008   4.660   0.463   1.316 -0.0446 -0.9990  1.4121
 2003WAT     H222009   4.728   0.529   1.435 -1.3186  0.9877  1.0969
 2004WAT      O22010   5.532   3.526   1.612 -0.4856 -0.1807  0.2138
 2004WAT     H122011   5.531   3.433   1.592 -0.7830 -0.0855 -0.2420
 2004WAT     H222012   5.448   3.558   1.579 -1.0756 -0.0366  1.7709
 2005WAT      O22013   4.825   0.663   7.174 -0.2438 -0.1389  0.1515
 2005WAT     H122014   4.778   0.747   7.173 -0.3076 -0.1624  0.8045
 2005WAT     H222015   4.803   0.625   7.259 -0.4712 -0.9657 -0.2689
 2006WAT      O22016   0.127   3.191   6.957  0.5456  0.0899 -0.6304
 2006WAT     H122017   0.149   3.145   6.876  0.9753  0.2505 -0.6046
 2006WAT     H222018   0.032   3.206   6.951  0.5901  0.1861 -1.1518
 2007WAT      O22019   2.058   4.947   7.401  0.1191 -0.0274 -0.1879
 2007WAT     H122020   1.986   5.002   7.431 -0.8356  0.1721 -2.6274
 2007WAT     H222021   2.137   4.995   7.426 -0.6097  0.5977  0.9915
 2008WAT      O22022   2.955   2.157   6.560 -0.1183  0.3882  0.0913
 2008WAT     H122023   3.000   2.223   6.508 -0.6461  0.9637  0.3524
 2008WAT     H222024   2.988   2.073   6.527  1.3246  0.7845  0.4486
 2009WAT      O22025   0.531   2.659   7.389  0.1284 -0.3334  0.0238
 2009WAT     H122026   0.467   2.685   7.322  1.7249  0.5237 -1.2530
 2009WAT     H222027   0.573   2.740   7.415  1.0832 -0.9287  0.3995
 2010WAT      O22028   1.472   4.204   2.236 -0.1200  0.6935  0.6622
 2010WAT     H122029   1.442   4.114   2.231  0.2127  0.5776  0.7240
 2010WAT     H222030   1.506   4.223   2.148 -0.4402  0.8496  0.5686
 2011WAT      O22031   2.506   5.730   7.403  0.0368  0.0074  0.5664
 2011WAT     H122032   2.489   5.735   7.309 -0.0048  0.0892  0.5782
 2011WAT     H222033   2.579   5.791   7.418  0.7936 -0.8433  0.4107
 2012WAT      O22034   0.101   3.362   1.867 -0.0546  0.4467  0.6132
 2012WAT     H122035   0.126   3.443   1.822  1.5164  0.3049  1.1772
 2012WAT     H222036   0.019   3.384   1.912  0.3790  1.7514  0.8118
 2013WAT      O22037   1.527   2.573   6.344  0.2485 -0.2566  0.2791
 2013WAT     H122038   1.575   2.565   6.426 -0.0298 -1.0095  0.3761
 2013WAT     H222039   1.464   2.500   6.345  0.6957 -0.6860 -0.8987
 2014WAT      O22040   5.559   0.908   0.463 -0.0066 -0.0970 -0.2486
 2014WAT     H122041   5.503   0.840   0.424 -1.3324 -0.4306  2.0637
 2014WAT     H222042   5.582   0.965   0.390 -1.2494 -1.4176 -1.7446
 2015WAT      O22043   0.760   4.900   1.383 -0.0029 -0.3349  0.3952
 2015WAT     H122044   0.721   4.881   1.468 -2.2425  0.2299 -0.4263
 2015WAT     H222045   0.814   4.977   1.397 -2.9261  1.8170  0.7555
 2016WAT      O22046   0.114   2.895   6.136 -0.1857 -0.0431 -0.0384
 2016WAT     H122047   0.060   2.870   6.062  0.7184 -1.3819 -0.2890
 2016WAT     H222048   0.111   2.990   6.137 -0.9999 -0.0365 -1.1903
 2017WAT      O22049   0.720   5.653   1.259  0.3135 -0.5030 -0.4536
 2017WAT     H122050   0.767   5.570   1.251  3.0718  0.8982  0.0710
 2017WAT     H222051   0.632   5.628   1.286  0.5917 -3.3203 -1.7740
 2018WAT      O22052   5.842   3.045   7.225 -0.0783 -0.2942  0.2075
 2018WAT     H122053   5.753   3.061   7.194 -0.4087  0.6459  1.5637
 2018WAT     H222054   5.844   2.952   7.247 -0.2578 -0.6567 -1.2174
 2019WAT      O22055   1.934   5.020   7.796 -0.1173 -0.1153  0.1519
 2019WAT     H122056   2.029   5.021   7.806  0.2787 -1.9414 -2.5803
 2019WAT     H222057   1.909   5.112   7.797  1.2889  0.3780  3.1381
 2020WAT      O22058   0.416   3.864   1.948  0.2453  0.4448  0.1562
 2020WAT     H122059   0.424   3.822   1.863  0.9292  2.5085 -0.8896
 2020WAT     H222060   0.503   3.902   1.964 -0.4518  1.8956  0.7294
 2021WAT      O22061   5.335   1.051   7.155  0.2181 -0.1698  0.1223
 2021WAT     H122062   5.321   1.072   7.247  3.5979 -0.4509  0.8297
 2021WAT     H222063   5.412   1.103   7.130 -1.2104  0.7400 -2.9177
 2022WAT      O22064   0.069   6.208   6.064  0.8103 -0.7013  0.2056
 2022WAT     H122065   0.039   6.190   6.153  0.5533  1.9168  0.7200
 2022WAT     H222066  -0.011   6.213   6.011  0.6818  0.8927  0.5027
 2023WAT      O22067   3.057   5.726   0.076 -0.1497 -0.6047  0.0920
 2023WAT     H122068   3.018   5.768   0.153 -0.8562 -0.6278 -0.2469
 2023WAT     H222069   3.038   5.633   0.087 -3.4231 -0.3169 -1.8068
 2024WAT      O22070   2.927   2.808   6.492 -0.2086 -0.0480 -0.1591
 2024WAT     H122071   2.861   2.876   6.481 -0.9946 -0.8205 -0.4029
 2024WAT     H222072   2.913   2.749   6.418 -0.9186 -1.5732  1.1173
 2025WAT      O22073   2.220   5.120   0.608 -0.1303 -0.2190 -0.4954
 2025WAT     H122074   2.201   5.060   0.680  1.3041 -0.1797 -0.0552
 2025WAT     H222075   2.140   5.120   0.555 -1.2229 -0.2177  1.1086
 2026WAT      O22076   5.503   0.816   0.068  0.2716 -0.1898  0.7346
 2026WAT     H122077   5.574   0.848   0.124 -0.5574 -1.1552  2.3883
 2026WAT     H222078   5.436   0.884   0.071 -0.2124 -0.6980  1.7911
 2027WAT      O22079   3.444   5.361   1.564  0.0248 -0.3102 -0.4704
 2027WAT     H122080   3.364   5.310   1.554  1.5417 -2.5685 -2.1701
 2027WAT     H222081   3.449   5.413   1.483 -0.6404  1.3645  0.5011
 2028WAT      O22082   0.948   1.497   6.617  0.0093 -0.5394 -0.5867
 2028WAT     H122083   0.899   1.571   6.581  0.9669 -0.7322 -2.3822
 2028WAT     H222084   1.029   1.535   6.649  0.3568 -0.7427 -1.2038
 2029WAT      O22085   1.577   2.457   0.104  0.0513  0.2181 -0.4674
 2029WAT     H122086   1.488   2.454   0.069 -0.5087 -0.4530  0.9033
 2029WAT     H222087   1.581   2.383   0.165  0.9047  1.3863  0.9682
 2030WAT      O22088   4.041   2.891   2.240  0.7386  0.2613  1.1675
 2030WAT     H122089   4.072   2.939   2.317  1.8377  1.8528 -0.2159
 2030WAT     H222090   4.121   2.863   2.195  0.1501 -2.7064  1.7356
 2031WAT      O22091   1.221   3.897   5.937  0.2877 -0.0686 -0.2152
 2031WAT     H122092   1.246   3.989   5.942  0.1632 -0.0836  0.8408
 2031WAT     H222093   1.199   3.883   5.844  0.2711  0.9697 -0.3766
 2032WAT      O22094   1.957   1.158   7.053 -0.1712 -0.4984  0.0598
 2032WAT     H122095   2.012   1.102   6.998 -1.0867 -1.2923 -0.0720
 2032WAT     H222096   2.006   1.240   7.061  0.9509 -1.1321 -0.1701
 2033WAT      O22097   5.587   5.060   1.018  0.2532  0.3977 -0.1088
 2033WAT     H122098   5.589   5.156   1.017 -2.1227  0.5044  0.6871
 2033WAT     H222099   5.508   5.038   1.066  1.2212 -2.0045  0.5067
 2034WAT      O22100   3.735   1.376   1.484 -0.0943 -0.5519  1.0652
 2034WAT     H122101   3.672   1.370   1.555 -1.5401  2.8776  0.3128
 2034WAT     H222102   3.770   1.465   1.491  0.0897 -0.2490 -2.1110
 2035WAT      O22103   2.328   4.865   6.574  0.3193  0.2049 -0.5829
 2035WAT     H122104   2.407   4.814   6.593  0.4404  0.5921 -0.0283
 2035WAT     H222105   2.257   4.802   6.577  0.6324 -0.2045 -1.3724
 2036WAT      O22106   5.819   1.834   6.879 -0.1517  0.0992 -0.2681
 2036WAT     H122107   5.798   1.927   6.867 -1.5198 -0.1880 -0.2096
 2036WAT     H222108   5.915   1.831   6.874  0.0390  1.7191  1.1388
 2037WAT      O22109   3.649   5.320   0.251  0.4495  0.1061 -0.2169
 2037WAT     H122110   3.678   5.244   0.301 -0.3793  0.4751  0.8571
 2037WAT     H222111   3.555   5.326   0.268  0.3067  0.7438 -1.1542
 2038WAT      O22112   0.805   2.264   7.394 -0.0100  0.0849 -0.8407
 2038WAT     H122113   0.884   2.214   7.417  0.5335  1.5486  0.6276
 2038WAT     H222114   0.836   2.334   7.336 -0.2381  0.6245 -0.3173
 2039WAT      O22115   4.790   4.537   5.827  0.0790  0.6198 -0.2509
 2039WAT     H122116   4.793   4.442   5.838 -1.4703  0.3742 -1.6707
 2039WAT     H222117   4.697   4.557   5.816  0.4444  2.2202 -0.6241
 2040WAT      O22118   4.647   5.317   0.370 -0.2704 -0.0538  0.0396
 2040WAT     H122119   4.716   5.252   0.386  0.6215  0.7304 -0.5222
 2040WAT     H222120   4.571   5.265   0.343 -0.6574 -1.1462  2.8575
 2041WAT      O22121   2.942   1.395   6.633  0.1766 -0.3553  0.1763
 2041WAT     H122122   2.964   1.476   6.678 -4.4746 -0.0614  2.4466
 2041WAT     H222123   2.947   1.417   6.540  1.3389  1.7820  0.6876
 2042WAT      O22124   2.500   3.450   0.422  0.1209  0.0259  0.3503
 2042WAT     H122125   2.415   3.482   0.453 -0.5301 -2.0167  0.8880
 2042WAT     H222126   2.561   3.470   0.493 -0.1354  0.5302  0.4315
 2043WAT      O22127   1.735   1.747   6.083  0.3924  0.5475 -0.1129
 2043WAT     H122128   1.721   1.783   5.995 -0.0191  0.5755 -0.0383
 2043WAT     H222129   1.827   1.765   6.102  0.8868 -0.7255 -1.1157
 2044WAT      O22130   2.804   3.752   1.040  0.5045 -0.4316 -0.2824
 2044WAT     H122131   2.877   3.807   1.069 -0.2783 -0.6274  2.2996
 2044WAT     H222132   2.839   3.663   1.041  0.5116 -0.4267  0.0103
 2045WAT      O22133   5.271   1.025   6.557 -0.1862  0.1418 -0.3602
 2045WAT     H122134   5.235   0.961   6.495 -1.9911 -0.0508  0.8218
 2045WAT     H222135   5.207   1.096   6.558  1.3793  1.6364 -1.0237
 2046WAT      O22136   5.449   4.820   6.180 -0.7626 -0.3268  0.0760
 2046WAT     H122137   5.436   4.737   6.134 -2.0991  1.2780 -2.7855
 2046WAT     H222138   5.475   4.795   6.269  0.5660 -3.7316 -1.0946
 2047WAT      O22139   4.071   4.724   5.669 -0.6128  0.7783  0.8229
 2047WAT     H122140   4.100   4.776   5.594 -1.8269  0.7740  0.3387
 2047WAT     H222141   4.152   4.702   5.715 -0.0773  3.6922  1.4771
 2048WAT      O22142   5.389   5.756   6.527 -0.3523  0.2971  0.1529
 2048WAT     H122143   5.450   5.826   6.552  0.4166 -0.5089  0.5465
 2048WAT     H222144   5.304   5.786   6.560  0.3137  0.1012  2.1678
 2049WAT      O22145   1.101   5.274   0.000 -0.3516 -0.2249  0.3986
 2049WAT     H122146   1.187   5.242   0.027  0.4301  1.7827  0.5050
 2049WAT     H222147   1.051   5.195  -0.022  1.1031 -1.5151  1.5043
 2050WAT      O22148   4.748   0.781   6.771  0.4743  0.7504  0.3826
 2050WAT     H122149   4.840   0.791   6.745  0.4324  0.7339  0.2319
 2050WAT     H222150   4.705   0.859   6.738  0.0417 -0.1455 -1.2614
 2051WAT      O22151   0.215   2.392   0.385 -0.0894 -0.6336 -0.0999
 2051WAT     H122152   0.134   2.442   0.386  0.2169 -0.1513  1.1627
 2051WAT     H222153   0.285   2.456   0.398  0.4265 -1.1674 -0.1547
 2052WAT      O22154   1.992   5.855   0.447 -0.0380  0.0730 -0.2491
 2052WAT     H122155   1.956   5.914   0.381 -1.7920  2.3153  2.4737
 2052WAT     H222156   2.018   5.777   0.398 -0.5531  1.8206 -3.6196
 2053WAT      O22157   4.695   2.387   7.064  0.2692  0.1705  0.3449
 2053WAT     H122158   4.769   2.339   7.028 -0.7601 -1.8666  0.7616
 2053WAT     H222159   4.704   2.378   7.159  0.8723  2.1744  0.5210
 2054WAT      O22160   4.594   0.128   1.058  0.4033  0.1253 -0.2783
 2054WAT     H122161   4.547   0.066   1.003  0.8582 -0.5345  0.0552
 2054WAT     H222162   4.609   0.204   1.002 -2.3187  1.0000  0.0162
 2055WAT      O22163   1.325   1.777   6.163  0.1871  0.1442 -0.3895
 2055WAT     H122164   1.388   1.706   6.150  1.3041  0.8435  1.0104
 2055WAT     H222165   1.352   1.844   6.101  2.3472  1.3904  1.7370
 2056WAT      O22166   2.786   3.836   0.160  0.4866 -0.2800  0.0427
 2056WAT     H122167   2.819   3.752   0.127 -0.8002  0.0050 -2.1965
 2056WAT     H222168   2.691   3.827   0.155  0.3341  1.2243 -0.0229
 2057WAT      O22169   5.294   1.293   0.657 -0.7941 -0.0675  0.5021
 2057WAT     H122170   5.350   1.305   0.733 -0.7476  0.2205  0.4279
 2057WAT     H222171   5.308   1.372   0.605 -1.6797  0.2712  0.7507
 2058WAT      O22172   4.199   4.678   0.518 -0.3833 -0.2276  0.4267
 2058WAT     H122173   4.170   4.588   0.502  0.6998 -0.8786  1.8597
 2058WAT     H222174   4.236   4.675   0.606  0.8763  1.3195 -0.0186
 2059WAT      O22175   3.054   0.456   6.277 -0.4474  0.4822 -0.1063
 2059WAT     H122176   2.965   0.489   6.292 -1.4098 -2.5833  2.0185
 2059WAT     H222177   3.089   0.441   6.365  0.2198 -2.9163 -0.8150
 2060WAT      O22178   2.170   0.643   0.393  0.3309  0.2200 -0.1798
 2060WAT     H122179   2.126   0.573   0.344 -1.3132 -2.0258  3.9566
 2060WAT     H222180   2.108   0.716   0.391 -1.3012 -1.0312  1.1198
 2061WAT      O22181   3.602   6.108   6.361 -0.6138 -0.1212  0.3313
 2061WAT     H122182   3.563   6.164   6.428  0.0253  1.8388 -0.8499
 2061WAT     H222183   3.530   6.090   6.300 -0.5643  0.3244  0.1414
 2062WAT      O22184   1.570   3.024   6.865 -0.2097  0.5440 -0.0706
 2062WAT     H122185   1.507   3.077   6.816 -0.9555 -1.3738 -1.3111
 2062WAT     H222186   1.545   2.933   6.845  2.8008 -0.2981 -0.4153
 2063WAT      O22187   0.623   1.609   0.279  0.0495  0.1008 -0.6346
 2063WAT     H122188   0.619   1.562   0.363  2.2758  0.2592 -0.3809
 2063WAT     H222189   0.596   1.698   0.301 -1.4979 -0.3606 -0.5594
 2064WAT      O22190   3.962   2.625   1.362  0.8241 -0.3528  0.2506
 2064WAT     H122191   4.004   2.550   1.320  2.8655  1.5071 -1.2117
 2064WAT     H222192   3.868   2.603   1.362  1.2945 -2.6671 -0.5161
 2065WAT      O22193   3.730   4.205   5.749 -0.2617  0.0466 -0.1197
 2065WAT     H122194   3.751   4.266   5.678  0.9562 -1.1849 -0.8850
 2065WAT     H222195   3.659   4.247   5.797 -0.7272  1.1906 -1.7218
 2066WAT      O22196   5.363   4.852   5.716 -0.1765 -0.0581  0.2582
 2066WAT     H122197   5.393   4.869   5.627 -0.3641  0.1061  0.2266
 2066WAT     H222198   5.431   4.797   5.754 -0.8705 -1.5311 -0.5264
 2067WAT      O22199   5.154   6.126   0.931 -0.5619  0.2060 -0.1527
 2067WAT     H122200   5.084   6.072   0.968  0.0207 -1.1242 -0.9379
 2067WAT     H222201   5.228   6.114   0.992 -0.6373  0.6795  0.0403
 2068WAT      O22202   2.617   5.373   6.464  0.0781 -0.1994 -0.0257
 2068WAT     H122203   2.539   5.324   6.488  0.0614 -0.4175 -0.5085
 2068WAT     H222204   2.605   5.393   6.371  0.1479  0.6071  0.1311
 2069WAT      O22205   5.690   4.331   1.247  0.1061 -0.0472 -0.1749
 2069WAT     H122206   5.679   4.424   1.229 -0.3152  0.0079  0.3413
 2069WAT     H222207   5.644   4.316   1.329 -0.1713 -0.7859 -0.4481
 2070WAT      O22208   3.482   2.106   5.635 -0.0272 -0.1940  0.1424
 2070WAT     H122209   3.468   2.190   5.679  2.0903  0.4087 -0.2162
 2070WAT     H222210   3.395   2.079   5.605 -0.8214  1.6169  0.7096
 2071WAT      O22211   5.800   0.771   5.576 -0.4897  0.0883 -0.2454
 2071WAT     H122212   5.776   0.681   5.598 -0.0095 -0.1510 -0.6875
 2071WAT     H222213   5.893   0.776   5.596  0.2124 -0.4150 -2.9949
 2072WAT      O22214   2.335   0.099   0.556  0.2527 -0.1243  0.0206
 2072WAT     H122215   2.382   0.043   0.494  1.1538  1.6418 -0.9621
 2072WAT     H222216   2.337   0.186   0.517 -1.7518  0.5016  1.1341
 2073WAT      O22217   1.478   0.717   6.131  0.3946 -0.0358 -0.3255
 2073WAT     H122218   1.529   0.784   6.087  0.8707 -2.0409 -3.1214
 2073WAT     H222219   1.541   0.673   6.189  0.9815 -0.2352 -1.0966
 2074WAT      O22220   0.923   4.772   7.928 -0.3220  0.5132  0.1589
 2074WAT     H122221   0.963   4.830   7.862 -2.0219  1.2249 -0.2848
 2074WAT     H222222   0.943   4.684   7.897 -0.5477  0.8435 -0.9615
 2075WAT      O22223   5.745   2.360   1.650  0.3696  0.1451 -0.3798
 2075WAT     H122224   5.735   2.305   1.728  0.0080  3.1104  1.8481
 2075WAT     H222225   5.811   2.316   1.597  1.4955 -1.4188  2.1554
 2076WAT      O22226   1.684   3.868   0.441  0.2089  0.5114  0.5325
 2076WAT     H122227   1.706   3.877   0.533  0.5115  0.9256  0.4271
 2076WAT     H222228   1.763   3.830   0.401 -0.5451 -1.3417  0.7243
 2077WAT      O22229   0.745   2.999   1.403 -0.1033  0.4053 -0.2989
 2077WAT     H122230   0.731   3.027   1.494  1.5046 -1.5087  0.6042
 2077WAT     H222231   0.656   2.986   1.368 -0.7408  0.0436  1.3687
 2078WAT      O22232   1.786   4.504   0.059  0.4193 -0.1808 -0.3449
 2078WAT     H122233   1.798   4.468  -0.029  0.1387 -0.4397 -0.2826
 2078WAT     H222234   1.738   4.586   0.046  1.1387  0.2202 -0.4949
 2079WAT      O22235   4.208   2.030   6.469  0.2527  0.2542 -0.1447
 2079WAT     H122236   4.258   1.970   6.525 -0.0413  0.4736  0.3546
 2079WAT     H222237   4.270   2.056   6.401  0.9636  0.8473  0.7037
 2080WAT      O22238   0.707   4.001   1.672  0.0505  0.9036 -0.2910
 2080WAT     H122239   0.684   4.079   1.723  1.2910  0.7002  0.6493
 2080WAT     H222240   0.776   3.958   1.724 -1.3124 -1.3892 -0.2373
 2081WAT      O22241   6.046   4.027   0.237  0.3608 -0.0250 -0.3917
 2081WAT     H122242   6.000   3.943   0.237  0.8263 -0.2865 -0.2083
 2081WAT     H222243   6.137   4.004   0.259  0.0122  0.7680  2.2464
 2082WAT      O22244   2.501   3.994   7.846 -0.1051 -0.3031 -0.0784
 2082WAT     H122245   2.482   3.918   7.791  0.4848 -0.7404  0.3041
 2082WAT     H222246   2.529   4.062   7.785  0.7968 -0.8657 -0.3096
 2083WAT      O22247   3.868   2.638   1.052 -0.0552  0.2407 -0.4687
 2083WAT     H122248   3.946   2.587   1.030 -0.0066  0.8311 -1.7699
 2083WAT     H222249   3.899   2.728   1.054 -0.2269  0.2779  1.3977
 2084WAT      O22250   0.615   0.553   7.101  0.3567 -0.2898 -0.2668
 2084WAT     H122251   0.610   0.519   7.011  1.1711  0.7331 -0.7116
 2084WAT     H222252   0.536   0.607   7.110  1.1149  0.9791 -0.9717
 2085WAT      O22253   2.145   3.539   6.253  0.1520 -0.5041 -0.1373
 2085WAT     H122254   2.068   3.594   6.256  0.8408  0.4827 -0.1021
 2085WAT     H222255   2.167   3.532   6.160  0.3986 -0.2378 -0.1008
 2086WAT      O22256   2.257   3.262   6.991  0.9035  0.7334 -0.1890
 2086WAT     H122257   2.255   3.189   7.053 -0.4889  0.7938 -0.1232
 2086WAT     H222258   2.350   3.279   6.977  1.2623  0.2964  1.3936
 2087WAT      O22259   5.782   2.447   1.976 -0.1844  0.5635 -0.6205
 2087WAT     H122260   5.774   2.365   1.928  0.9230  0.7281 -1.1147
 2087WAT     H222261   5.876   2.461   1.985 -0.3164  2.2756 -1.4257
 2088WAT      O22262   4.786   4.955   1.092  0.4561  0.6169  0.6205
 2088WAT     H122263   4.873   4.961   1.131  0.1407 -0.0344  1.4402
 2088WAT     H222264   4.747   5.041   1.106  0.4556  0.4813  1.5035
 2089WAT      O22265   0.504   5.079   6.069 -0.1517 -0.1073 -1.1576
 2089WAT     H122266   0.579   5.106   6.121 -0.0013 -0.2041 -1.3200
 2089WAT     H222267   0.455   5.160   6.052 -1.2289 -0.3119  0.7105
 2090WAT      O22268   4.481   2.549   1.634 -0.5917 -0.4795 -0.3890
 2090WAT     H122269   4.543   2.618   1.656 -1.0168  0.8791 -3.0675
 2090WAT     H222270   4.521   2.469   1.670  1.1846  0.7546  0.5679
 2091WAT      O22271   2.843   2.372   6.691 -0.4052 -0.1683 -0.8447
 2091WAT     H122272   2.903   2.297   6.686  0.8622  0.8855 -2.8342
 2091WAT     H222273   2.897   2.445   6.719 -1.5503  0.1354  0.7196
 2092WAT      O22274   1.635   2.630   7.108  0.0963  0.1781 -0.2772
 2092WAT     H122275   1.627   2.546   7.152  1.0163 -0.4969 -1.3470
 2092WAT     H222276   1.726   2.657   7.124 -0.3421  1.2387  0.5101
 2093WAT      O22277   6.092   0.499   0.122 -0.8036  0.0422  0.7600
 2093WAT     H122278   6.180   0.469   0.101 -0.6512 -1.0684  2.6891
 2093WAT     H222279   6.039   0.419   0.120 -2.2261  0.9453 -2.2075
 2094WAT      O22280   1.240   0.909   1.366  0.3996  0.4159 -0.0875
 2094WAT     H122281   1.292   0.965   1.422  2.4669  1.1675 -2.5574
 2094WAT     H222282   1.300   0.839   1.339 -1.2419 -1.3112  0.5187
 2095WAT      O22283   0.619   3.830   0.932  0.0234  0.1118 -0.0322
 2095WAT     H122284   0.637   3.905   0.988  0.6994 -1.2886  1.7082
 2095WAT     H222285   0.524   3.831   0.919 -0.1618  0.4347  1.2281
 2096WAT      O22286   0.433   6.047   7.492  0.0861  0.3250 -0.5142
 2096WAT     H122287   0.411   6.138   7.475  0.1238  0.5098  0.4145
 2096WAT     H222288   0.517   6.050   7.537  0.3947 -0.2059 -1.0325
 2097WAT      O22289   4.377   4.370   0.184 -0.1198  0.2473 -0.3369
 2097WAT     H122290   4.302   4.319   0.212  0.7581 -0.0442  1.6476
 2097WAT     H222291   4.437   4.306   0.146  0.2165  0.0596  0.4922
 2098WAT      O22292   1.522   0.495   7.208  0.1397  0.0903 -0.5208
 2098WAT     H122293   1.547   0.475   7.298  0.7530 -1.7739 -1.0641
 2098WAT     H222294   1.427   0.491   7.208  0.1081  0.5290  0.1090
 2099WAT      O22295   1.603   0.966   6.977 -0.1418 -0.5278  0.0592
 2099WAT     H122296   1.581   0.921   7.059  1.9781 -0.9358  0.4516
 2099WAT     H222297   1.561   1.052   6.985  0.8511 -0.1728  2.0330
 2100WAT      O22298   2.717   0.694   1.783 -0.0576  0.0028  0.7180
 2100WAT     H122299   2.769   0.666   1.707 -0.2794  2.5900 -0.5285
 2100WAT     H222300   2.633   0.650   1.772  0.5080 -1.0553  0.4875
 2101WAT      O22301   3.389   5.536   0.085  0.1627  0.4322 -0.6234
 2101WAT     H122302   3.312   5.527   0.029  0.6270 -3.2828 -0.9678
 2101WAT     H222303   3.353   5.547   0.173 -0.7493  0.4882 -0.9878
 2102WAT      O22304   2.768   4.549   7.767  0.2890 -0.3637 -0.6587
 2102WAT     H122305   2.818   4.491   7.823  1.2482 -0.6353 -1.7493
 2102WAT     H222306   2.747   4.624   7.823  0.0363 -1.2201  0.4247
 2103WAT      O22307   0.315   3.763   0.455 -0.2866  0.4608  0.0519
 2103WAT     H122308   0.338   3.787   0.365 -1.6293  1.3936 -0.0767
 2103WAT     H222309   0.381   3.805   0.509  0.6411 -0.2526 -0.4882
 2104WAT      O22310   6.050   4.426   7.641 -0.0142  0.4592 -0.4252
 2104WAT     H122311   6.036   4.418   7.547 -1.8316 -0.2978 -0.1332
 2104WAT     H222312   6.054   4.521   7.657  0.7601  0.5861 -1.2900
 2105WAT      O22313   5.451   0.431   1.895 -0.2594 -1.1374 -0.0773
 2105WAT     H122314   5.370   0.431   1.843 -0.0625  1.4786 -0.5212
 2105WAT     H222315   5.436   0.497   1.962  1.4134 -0.8051 -0.0027
 2106WAT      O22316   5.645   4.142   0.996  0.5923  0.2127  0.3701
 2106WAT     H122317   5.665   4.171   1.085  0.4224  1.5650 -0.0025
 2106WAT     H222318   5.730   4.119   0.959  1.1182  2.4875 -0.0329
 2107WAT      O22319   3.853   2.325   0.217 -0.1126  0.4688 -0.1003
 2107WAT     H122320   3.842   2.351   0.125 -1.6223 -0.7247 -0.2931
 2107WAT     H222321   3.905   2.396   0.256  0.2180  1.1890 -1.7693
 2108WAT      O22322   1.175   0.881   6.594 -0.0814 -0.1570 -0.0816
 2108WAT     H122323   1.226   0.958   6.571 -1.5954  0.7026 -0.6926
 2108WAT     H222324   1.174   0.828   6.514  0.3814 -0.4921  0.1290
 2109WAT      O22325   3.226   0.586   1.527 -0.2958  0.4365  0.3875
 2109WAT     H122326   3.195   0.668   1.490  0.9929  1.2598  1.0610
 2109WAT     H222327   3.293   0.555   1.466  0.1545  0.5825  0.7969
 2110WAT      O22328   1.963   4.769   0.477 -0.6031  0.4670 -0.4123
 2110WAT     H122329   1.966   4.707   0.550 -0.3147  0.1993 -0.6448
 2110WAT     H222330   2.019   4.729   0.410 -0.7280  0.7915 -0.7132
 2111WAT      O22331   1.455   4.198   1.096 -0.0495 -0.0196 -0.5748
 2111WAT     H122332   1.413   4.193   1.182  0.9333 -0.6676 -0.1199
 2111WAT     H222333   1.382   4.201   1.034 -0.8154  2.6192  0.3509
 2112WAT      O22334   3.420   4.143   6.261  0.3240  0.5354 -0.3493
 2112WAT     H122335   3.467   4.083   6.320 -1.7252  0.4944  1.3632
 2112WAT     H222336   3.486   4.171   6.197  1.9553 -1.6281  0.2647
 2113WAT      O22337   1.358   4.053   7.255  0.4889  0.0720 -0.1036
 2113WAT     H122338   1.320   4.133   7.292  0.7884  0.7511 -1.2254
 2113WAT     H222339   1.435   4.037   7.309  1.1449  1.2806 -0.6359
 2114WAT      O22340   2.420   5.726   1.692  0.2336 -0.0605 -0.2413
 2114WAT     H122341   2.508   5.763   1.682  0.7267 -0.0406  3.0777
 2114WAT     H222342   2.365   5.800   1.718  0.0396 -0.6286  1.0628
 2115WAT      O22343   3.351   0.335   1.137  0.4349 -0.1241  0.0323
 2115WAT     H122344   3.278   0.325   1.199  0.2620 -2.0065 -0.4279
 2115WAT     H222345   3.310   0.331   1.051  0.8935  0.6272 -0.2309
 2116WAT      O22346   0.558   2.500   5.836  0.5844 -0.3848 -0.0823
 2116WAT     H122347   0.478   2.457   5.864 -1.0792  0.8824 -2.4850
 2116WAT     H222348   0.556   2.493   5.740  2.5457  1.0687 -0.2887
 2117WAT      O22349   2.545   2.174   0.757  0.7321 -0.5742  0.1545
 2117WAT     H122350   2.535   2.238   0.827  1.1050 -2.1387  1.7299
 2117WAT     H222351   2.495   2.209   0.684 -0.4020  0.7093  1.4901
 2118WAT      O22352   3.037   3.433   0.198  0.7352  0.2663 -0.1141
 2118WAT     H122353   2.997   3.501   0.144  2.0970  0.1228 -1.3706
 2118WAT     H222354   2.994   3.352   0.171  0.9747  0.2824 -0.5555
 2119WAT      O22355   2.407   3.756   7.220  0.0156  0.2194  0.1455
 2119WAT     H122356   2.344   3.737   7.150  0.8891 -1.4113 -0.2622
 2119WAT     H222357   2.480   3.799   7.175  0.9725 -1.6265 -0.1812
 2120WAT      O22358   5.451   5.201   0.056 -0.4663  0.0122  0.0889
 2120WAT     H122359   5.375   5.208   0.113  0.1045 -0.4500  0.9349
 2120WAT     H222360   5.499   5.283   0.069 -0.2153 -0.1905  0.4647
 2121WAT      O22361   2.898   2.828   7.227 -0.0639 -0.2184 -0.0046
 2121WAT     H122362   2.864   2.887   7.160  0.7037  1.3815  0.9325
 2121WAT     H222363   2.826   2.767   7.245 -1.7728  1.8793  0.6265
 2122WAT      O22364   2.320   0.220   6.643  0.2105  0.8019  0.1585
 2122WAT     H122365   2.324   0.182   6.731  1.5436  0.9195  0.1671
 2122WAT     H222366   2.404   0.197   6.603 -0.7150 -0.0329 -1.4189
 2123WAT      O22367   5.838   2.803   7.022 -0.1055 -0.4629 -0.1501
 2123WAT     H122368   5.873   2.835   6.939 -1.5305  1.9560  0.1102
 2123WAT     H222369   5.752   2.768   7.001 -0.0976 -0.7013  0.1913
 2124WAT      O22370   4.792   5.039   7.783  0.0701 -0.2936 -0.6433
 2124WAT     H122371   4.793   4.970   7.717  0.8344 -0.4744 -0.4539
 2124WAT     H222372   4.835   5.113   7.741  0.1009 -0.2431 -0.5220
 2125WAT      O22373   3.658   5.215   1.669  0.2085  0.0010  0.0692
 2125WAT     H122374   3.642   5.172   1.753 -0.3245 -1.6556 -0.8366
 2125WAT     H222375   3.572   5.245   1.641  0.2584 -0.1423 -0.2396
 2126WAT      O22376   2.915   1.261   6.331  0.2695  0.5141 -0.0706
 2126WAT     H122377   2.983   1.194   6.343  0.1684  0.1243 -1.4374
 2126WAT     H222378   2.943   1.309   6.253 -1.1249  0.1959 -0.8004
 2127WAT      O22379   1.570   4.353   2.457 -0.2284  0.3951 -0.7747
 2127WAT     H122380   1.522   4.416   2.403 -1.0895 -1.4499 -2.3120
 2127WAT     H222381   1.584   4.278   2.399  0.9107 -0.7574  0.8999
 2128WAT      O22382   2.464   0.715   0.307 -0.3045  0.0508  0.1563
 2128WAT     H122383   2.539   0.708   0.366  1.4834 -0.6107 -2.0713
 2128WAT     H222384   2.388   0.719   0.366  1.4927  2.5659  2.5792
 2129WAT      O22385   2.156   3.092   5.606 -0.4811  0.5135  0.4029
 2129WAT     H122386   2.210   3.160   5.645 -1.6497  1.2304  0.8114
 2129WAT     H222387   2.114   3.048   5.680 -1.7172  1.0433  0.0524
 2130WAT      O22388   4.928   2.140   1.640 -0.3057 -0.3650  0.1823
 2130WAT     H122389   4.900   2.192   1.716 -1.1890  0.7078 -0.8548
 2130WAT     H222390   4.971   2.202   1.582 -1.0082 -0.8590 -0.9017
 2131WAT      O22391   0.471   1.828   0.287  0.0727  0.1071  0.1418
 2131WAT     H122392   0.476   1.920   0.261  0.2499 -0.2338 -1.0662
 2131WAT     H222393   0.385   1.819   0.329 -1.7055  0.0246 -3.1430
 2132WAT      O22394   0.882   1.244   7.723 -0.0020 -1.0244  0.2009
 2132WAT     H122395   0.865   1.337   7.742  0.7059 -0.9267  0.3773
 2132WAT     H222396   0.827   1.225   7.647 -0.4616 -0.5709  0.4062
 2133WAT      O22397   0.438   5.870   5.653  0.3646 -0.2833 -0.2105
 2133WAT     H122398   0.501   5.798   5.649  2.5419  1.4832  0.2848
 2133WAT     H222399   0.409   5.880   5.562  2.3648  0.0853 -0.8818
 2134WAT      O22400   2.121   0.158   0.725 -0.7750  0.0882  0.3082
 2134WAT     H122401   2.193   0.131   0.669 -1.9904 -1.4252 -0.5978
 2134WAT     H222402   2.090   0.240   0.686 -1.7692 -1.0655 -1.4688
 2135WAT      O22403   0.961   4.109   7.895  0.3832  0.4085  0.1149
 2135WAT     H122404   0.888   4.166   7.920 -0.3809  0.1506 -1.3859
 2135WAT     H222405   0.981   4.060   7.974 -0.4866  1.1180  0.8009
 2136WAT      O22406   3.902   4.852   5.822 -0.1541 -0.1179 -1.0821
 2136WAT     H122407   3.975   4.813   5.774 -0.6069 -0.6917 -1.3221
 2136WAT     H222408   3.905   4.945   5.800 -0.6220 -0.4449 -2.5868
 2137WAT      O22409   1.160   2.981   1.197  0.1958  0.1234 -0.1928
 2137WAT     H122410   1.084   2.980   1.255  1.7758 -1.5526  2.0188
 2137WAT     H222411   1.154   2.898   1.149 -0.4954  0.9999 -1.7198
 2138WAT      O22412   4.155   1.467   0.213 -0.2398  0.1509 -0.1006
 2138WAT     H122413   4.114   1.489   0.130 -1.0360 -0.5009  0.1106
 2138WAT     H222414   4.120   1.532   0.275 -0.7799 -0.2619  0.0305
 2139WAT      O22415   4.667   4.765   6.983 -0.2383  0.7607 -0.8575
 2139WAT     H122416   4.664   4.757   7.078  1.1705  1.3334 -0.7327
 2139WAT     H222417   4.674   4.674   6.952 -1.1553  0.5434 -0.4524
 2140WAT      O22418   1.144   3.553   6.093  0.2741 -0.3237 -0.3316
 2140WAT     H122419   1.141   3.626   6.155 -1.0961 -1.3832  0.9123
 2140WAT     H222420   1.221   3.571   6.039 -0.4797  2.5250 -0.6732
 2141WAT      O22421   4.612   0.757   6.331 -0.3143  0.2251 -0.4391
 2141WAT     H122422   4.654   0.689   6.384  1.3426  0.3064 -1.5891
 2141WAT     H222423   4.633   0.839   6.375 -1.8950  0.0878  0.6701
 2142WAT      O22424   1.924   2.893   0.278  0.6920 -0.3882 -0.1423
 2142WAT     H122425   1.959   2.804   0.287  1.8694  0.1090  0.3699
 2142WAT     H222426   1.835   2.880   0.245  0.6933 -1.7703  0.3281
 2143WAT      O22427   0.101   3.832   7.266  0.1452  0.1099 -0.0493
 2143WAT     H122428   0.182   3.875   7.295  0.6078 -0.6287 -0.2320
 2143WAT     H222429   0.083   3.871   7.180 -0.1663  0.8893  0.3583
 2144WAT      O22430   4.072   2.697   1.852 -0.6771  0.2454 -0.2031
 2144WAT     H122431   4.022   2.657   1.781 -1.7647 -2.1503  1.7657
 2144WAT     H222432   4.011   2.759   1.892 -0.6977  0.2322 -0.2144
 2145WAT      O22433   2.494   2.586   7.583 -0.1627  0.0599 -0.2074
 2145WAT     H122434   2.410   2.623   7.612 -0.2242 -0.3020  0.0730
 2145WAT     H222435   2.558   2.654   7.603 -0.2010 -0.1797  0.7906
 2146WAT      O22436   3.707   4.202   1.166  0.2580 -0.7197 -0.2873
 2146WAT     H122437   3.701   4.227   1.074  0.1647  0.4925  0.0289
 2146WAT     H222438   3.666   4.115   1.170  2.5775 -1.9740 -1.8112
 2147WAT      O22439   3.888   5.695   7.501 -0.3059 -0.3912  0.2571
 2147WAT     H122440   3.823   5.625   7.512 -0.7889 -0.1898 -1.1324
 2147WAT     H222441   3.841   5.765   7.457  0.3639  0.5523  1.0091
 2148WAT      O22442   1.511   3.323   0.120 -0.1651  0.6479  0.6595
 2148WAT     H122443   1.453   3.395   0.143 -0.1510  0.2700  1.9526
 2148WAT     H222444   1.598   3.362   0.117 -0.4178  1.1975 -1.1997
 2149WAT      O22445   5.749   2.731   0.751  0.2443  0.1847  0.3966
 2149WAT     H122446   5.673   2.789   0.746  1.4239  1.8957  1.4059
 2149WAT     H222447   5.819   2.778   0.704  0.8348 -1.1150 -0.0654
 2150WAT      O22448   4.126   1.177   7.794  0.5025  0.4918  0.7656
 2150WAT     H122449   4.186   1.102   7.787 -0.0359  0.1009  0.2625
 2150WAT     H222450   4.065   1.153   7.863 -0.0783  0.1660  0.1525
 2151WAT      O22451   4.620   3.966   7.432 -0.3694  0.2819  0.1307
 2151WAT     H122452   4.639   4.049   7.389 -0.1233  0.1080 -0.0924
 2151WAT     H222453   4.702   3.917   7.429 -0.6921 -0.2401 -0.3306
 2152WAT      O22454   4.845   3.108   0.434  0.6104 -0.2161  0.2997
 2152WAT     H122455   4.781   3.085   0.366  1.2906 -1.4081  0.0412
 2152WAT     H222456   4.858   3.202   0.423 -0.6410 -0.0597 -0.0376
 2153WAT      O22457   1.641   5.781   0.813  0.4213 -0.0521  0.2604
 2153WAT     H122458   1.649   5.831   0.894 -2.1961  0.3805  0.3426
 2153WAT     H222459   1.658   5.844   0.743 -0.0411  0.2609  0.4280
 2154WAT      O22460   0.977   2.298   0.746  0.5802  0.0092 -0.3474
 2154WAT     H122461   0.983   2.206   0.770 -0.4376  0.6282  2.8817
 2154WAT     H222462   1.067   2.331   0.753  0.8042 -0.5509 -0.5776
 2155WAT      O22463   0.388   1.137   7.557  0.3827  1.0422  0.3465
 2155WAT     H122464   0.376   1.069   7.624  2.3172  0.0718 -0.2145
 2155WAT     H222465   0.299   1.165   7.535 -0.6163 -2.2764 -0.3574
 2156WAT      O22466   2.252   2.859   7.304  0.4601  0.1598  0.1840
 2156WAT     H122467   2.284   2.814   7.226  0.2922 -1.8982  1.2372
 2156WAT     H222468   2.322   2.850   7.368 -0.4591 -0.5865  1.1247
 2157WAT      O22469   5.983   5.413   1.544  0.0545  0.1194 -0.2796
 2157WAT     H122470   5.956   5.323   1.528 -0.3468  0.4192 -1.3535
 2157WAT     H222471   5.916   5.448   1.603  0.6053 -0.4912  0.7219
 2158WAT      O22472   5.605   3.876   7.780 -0.3001 -0.0195  0.3646
 2158WAT     H122473   5.668   3.859   7.710  0.4180  1.3490  0.6475
 2158WAT     H222474   5.559   3.956   7.752 -1.7103 -0.8186  0.3109
 2159WAT      O22475   5.265   3.855   1.527 -0.5280  0.0596  0.1801
 2159WAT     H122476   5.336   3.909   1.560 -0.0104  1.5231 -2.9403
 2159WAT     H222477   5.209   3.839   1.603  0.8250  2.5823  1.8394
 2160WAT      O22478   3.533   3.948   6.429 -0.3528  0.3253 -0.3479
 2160WAT     H122479   3.452   3.973   6.474 -0.8474 -0.4912 -0.7526
 2160WAT     H222480   3.600   3.950   6.497 -1.1425 -1.1968  0.5308
 2161WAT      O22481   5.074   2.816   0.955  0.5446  0.4096  0.2098
 2161WAT     H122482   5.132   2.790   1.026  0.4860  2.2035  0.9656
 2161WAT     H222483   5.127   2.874   0.900  0.1178  0.2891 -0.3401
 2162WAT      O22484   0.097   1.132   7.501 -0.0782 -0.4523 -0.3197
 2162WAT     H122485   0.049   1.054   7.530  0.6699 -0.2034  1.7193
 2162WAT     H222486   0.049   1.205   7.539  0.8506 -0.0897  0.1805
 2163WAT      O22487   4.964   5.050   2.387  0.5133 -0.1598  0.0817
 2163WAT     H122488   4.947   5.143   2.403 -0.2845 -0.0916 -0.9496
 2163WAT     H222489   5.052   5.034   2.419  1.1239  1.2564 -0.7775
 2164WAT      O22490   4.371   4.482   6.947 -0.4171 -0.1212  0.4439
 2164WAT     H122491   4.467   4.491   6.952 -0.4984  0.3556  1.1429
 2164WAT     H222492   4.345   4.550   6.884 -0.2905 -0.3493  0.1373
 2165WAT      O22493   3.351   0.767   6.020 -0.1296 -0.4373  0.7746
 2165WAT     H122494   3.402   0.709   6.076 -0.0512  0.0849  1.2523
 2165WAT     H222495   3.400   0.770   5.937 -1.1418 -2.5820  0.0170
 2166WAT      O22496   4.517   5.612   7.746  0.0233  0.1982  0.2190
 2166WAT     H122497   4.557   5.694   7.774  1.1483  0.0891 -0.9923
 2166WAT     H222498   4.548   5.599   7.656 -2.4070 -0.1231 -0.6425
 2167WAT      O22499   2.904   0.195   6.229  0.2499 -0.6839 -0.2840
 2167WAT     H122500   2.949   0.112   6.216 -1.0842 -1.4958  0.0846
 2167WAT     H222501   2.974   0.259   6.241  1.2917 -1.8439 -0.0113
 2168WAT      O22502   5.953   2.125   5.596 -0.3070  0.3490  0.2055
 2168WAT     H122503   5.983   2.043   5.637 -0.3645  1.6885  3.2144
 2168WAT     H222504   5.860   2.111   5.579 -0.1399 -0.4760 -0.0841
 2169WAT      O22505   3.132   3.679   7.758 -0.2831 -0.9264 -0.0280
 2169WAT     H122506   3.107   3.591   7.786  0.5393 -1.3572 -0.6438
 2169WAT     H222507   3.223   3.671   7.730  0.4929  0.5465  1.8637
 2170WAT      O22508   2.150   3.115   7.238 -0.4789 -0.2707  0.5861
 2170WAT     H122509   2.184   3.035   7.278 -0.7289 -0.5397  0.2632
 2170WAT     H222510   2.057   3.099   7.227 -0.3941 -0.2562 -0.2287
 2171WAT      O22511   1.994   5.259   1.898  0.1200  0.4346  0.5497
 2171WAT     H122512   1.904   5.264   1.928  0.2134  0.7823  0.7832
 2171WAT     H222513   2.047   5.261   1.978  0.3957  2.0308  0.3752
 2172WAT      O22514   1.868   4.763   5.625  0.6443 -0.0733  0.1381
 2172WAT     H122515   1.902   4.675   5.609  2.1834  0.3635  0.7941
 2172WAT     H222516   1.888   4.780   5.718  0.2801  0.9192  0.0505
 2173WAT      O22517   5.130   5.430   6.295 -0.1521 -0.2339  0.4445
 2173WAT     H122518   5.193   5.499   6.274 -0.9639  0.1562 -0.9124
 2173WAT     H222519   5.052   5.477   6.326 -1.4592 -0.2868 -2.4138
 2174WAT      O22520   5.538   2.921   1.282  0.1507  0.2951 -0.1492
 2174WAT     H122521   5.464   2.891   1.335  2.0306 -1.8637  1.4054
 2174WAT     H222522   5.581   2.987   1.336  0.9601 -0.4965  0.1835
 2175WAT      O22523   3.146   2.777   7.114  0.0847 -0.7853 -0.1556
 2175WAT     H122524   3.082   2.832   7.159 -0.6376  0.1157 -2.1579
 2175WAT     H222525   3.102   2.693   7.104 -0.1857 -0.6465 -0.1599
 2176WAT      O22526   6.011   2.030   5.951 -0.5782 -0.2361  0.2489
 2176WAT     H122527   6.009   1.984   5.867 -0.5649  0.5704 -0.1928
 2176WAT     H222528   6.098   2.069   5.955 -0.6679 -0.0657  0.5337
 2177WAT      O22529   2.434   1.276   0.519 -0.2275 -0.5004  0.1850
 2177WAT     H122530   2.415   1.368   0.538 -1.4866 -0.7598  0.2657
 2177WAT     H222531   2.495   1.279   0.445  0.9589  0.4183  1.1555
 2178WAT      O22532   4.493   4.934   1.315  0.0341 -0.2514  0.6444
 2178WAT     H122533   4.410   4.973   1.289 -0.2024 -0.4672  1.0618
 2178WAT     H222534   4.502   4.956   1.408  0.7598  0.3258  0.4519
 2179WAT      O22535   1.600   6.001   0.641  0.6252 -0.3801 -0.3191
 2179WAT     H122536   1.677   6.045   0.607  0.1245 -0.9664 -2.3238
 2179WAT     H222537   1.527   6.060   0.620  0.2949 -0.7966 -0.3572
 2180WAT      O22538   4.490   1.938   0.129 -0.6190 -0.1616 -0.5734
 2180WAT     H122539   4.585   1.928   0.130 -0.7362 -1.6795  1.0475
 2180WAT     H222540   4.458   1.863   0.180 -2.7478 -0.2981 -2.0143
 2181WAT      O22541   3.262   4.439   1.718  0.0845  0.7832  0.0717
 2181WAT     H122542   3.314   4.393   1.784 -0.3089 -0.7539 -0.6611
 2181WAT     H222543   3.173   4.408   1.732  0.3058 -1.4260 -2.6189
 2182WAT      O22544   3.607   2.320   1.073 -0.0781  0.3267  0.1953
 2182WAT     H122545   3.648   2.301   1.157  0.8443 -0.1963 -0.3601
 2182WAT     H222546   3.578   2.411   1.080 -1.3945 -0.1548  1.6283
 2183WAT      O22547   2.103   3.922   0.083  0.0481 -0.4113 -0.5978
 2183WAT     H122548   2.197   3.918   0.062  0.2669  2.8707 -0.7169
 2183WAT     H222549   2.083   4.015   0.087 -2.9798 -0.9965  0.7046
 2184WAT      O22550   2.849   6.111   6.405  0.2792  0.2317  0.3076
 2184WAT     H122551   2.899   6.049   6.458 -1.1545 -1.6528 -0.4361
 2184WAT     H222552   2.774   6.135   6.460  0.3770  0.6648  0.2604
 2185WAT      O22553   2.988   5.940   7.128 -0.3693  0.4417 -0.2178
 2185WAT     H122554   2.911   5.996   7.115  1.6871  3.6759  0.2997
 2185WAT     H222555   3.023   5.926   7.040 -0.0462  1.3950 -0.2599
 2186WAT      O22556   4.724   4.792   6.551  0.2285  0.7266  0.7562
 2186WAT     H122557   4.693   4.856   6.486  2.1475  1.3487  0.3915
 2186WAT     H222558   4.754   4.845   6.625  0.2010  0.1485  1.1860
 2187WAT      O22559   0.171   2.825   0.298 -0.1361 -0.0079  0.3752
 2187WAT     H122560   0.154   2.818   0.204  3.9915  0.1691 -0.5811
 2187WAT     H222561   0.214   2.911   0.308  1.3952 -0.8882  1.9831
 2188WAT      O22562   3.764   4.439   5.985  0.3399 -0.0273  0.3428
 2188WAT     H122563   3.799   4.478   5.905  0.6207  0.6210  0.7708
 2188WAT     H222564   3.784   4.503   6.053 -2.9424  1.1292  0.3980
 2189WAT      O22565   5.163   2.447   6.450 -0.4226  0.7941 -0.3075
 2189WAT     H122566   5.201   2.525   6.492 -0.3584 -0.8553  3.0016
 2189WAT     H222567   5.078   2.436   6.491 -0.1766 -1.2227 -0.2343
 2190WAT      O22568   2.896   0.607   7.717  0.2633  0.2716  0.1963
 2190WAT     H122569   2.916   0.587   7.809 -0.7708  1.9534  0.8341
 2190WAT     H222570   2.950   0.684   7.698  0.5393 -0.1289 -0.6375
 2191WAT      O22571   5.663   5.935   1.615  0.3631 -0.2296 -0.3591
 2191WAT     H122572   5.693   5.971   1.698 -1.4881 -0.7287  0.5924
 2191WAT     H222573   5.668   5.840   1.627 -3.1328 -0.4409  0.6052
 2192WAT      O22574   0.734   5.568   6.426 -0.2431  0.1338 -0.3037
 2192WAT     H122575   0.760   5.523   6.346  1.4330  1.1037 -0.3581
 2192WAT     H222576   0.734   5.661   6.402  0.3049  0.4414  0.8036
 2193WAT      O22577   4.242   1.920   7.266 -0.5315  0.2632 -0.2590
 2193WAT     H122578   4.240   1.963   7.351 -1.2350  2.5895 -1.3561
 2193WAT     H222579   4.326   1.874   7.264  0.1761  1.4299  1.1136
 2194WAT      O22580   4.143   1.849   6.826 -0.2658 -0.2551 -0.0701
 2194WAT     H122581   4.231   1.886   6.833  0.4126 -1.2323 -2.5277
 2194WAT     H222582   4.085   1.926   6.824  0.5289  0.4045  0.9880
 2195WAT      O22583   0.460   3.862   1.646 -0.6028  0.5171  0.0558
 2195WAT     H122584   0.547   3.902   1.639 -0.5638  0.1023 -2.9622
 2195WAT     H222585   0.400   3.936   1.648 -0.2601  0.8255  2.6312
 2196WAT      O22586   0.756   0.836   1.870 -0.1539  0.0341  0.4218
 2196WAT     H122587   0.732   0.865   1.783 -0.4400  0.7828  0.7386
 2196WAT     H222588   0.847   0.864   1.880 -0.2606  0.3563  0.5239
 2197WAT      O22589   5.590   0.549   7.016  1.0045  0.0162  0.1832
 2197WAT     H122590   5.499   0.574   7.031  1.3730  0.9498  0.9913
 2197WAT     H222591   5.628   0.626   6.972  1.1626 -0.7578 -1.0688
 2198WAT      O22592   0.517   3.191   1.496  0.4938  0.4215  0.4605
 2198WAT     H122593   0.490   3.104   1.468  1.0744  0.3997 -0.0713
 2198WAT     H222594   0.588   3.176   1.559 -0.2746  0.4892  1.3533
 2199WAT      O22595   3.544   1.256   6.688  0.2707  0.2363 -0.3640
 2199WAT     H122596   3.604   1.213   6.628  1.7765  0.7136  0.7321
 2199WAT     H222597   3.593   1.332   6.720 -1.5433  1.6047 -0.6782
 2200WAT      O22598   4.458   2.136   7.075  0.1502  0.4074  0.6241
 2200WAT     H122599   4.515   2.064   7.047 -1.7237 -0.8496 -0.1866
 2200WAT     H222600   4.456   2.129   7.170 -0.8391 -1.3868  0.5299
 2201WAT      O22601   2.678   2.247   2.229 -0.8802  0.6761  0.0025
 2201WAT     H122602   2.633   2.256   2.145 -2.5578  0.0654  0.7770
 2201WAT     H222603   2.740   2.319   2.231  0.2500 -0.1405 -2.3624
 2202WAT      O22604   1.238   0.606   6.094 -0.8127  0.1084 -0.2905
 2202WAT     H122605   1.184   0.646   6.026 -0.0999 -0.5712 -1.2863
 2202WAT     H222606   1.322   0.652   6.088 -0.6128 -0.2350 -0.1553
 2203WAT      O22607   0.992   3.269   7.178  0.0031 -0.7692 -0.1363
 2203WAT     H122608   0.995   3.354   7.134 -1.4064 -0.0242  1.1344
 2203WAT     H222609   0.899   3.251   7.188  0.2872 -1.4711  1.4651
 2204WAT      O22610   3.324   3.498   0.221  0.1927 -0.2631  0.7251
 2204WAT     H122611   3.328   3.438   0.296 -1.5533 -2.0135 -0.4712
 2204WAT     H222612   3.231   3.501   0.198  0.7412 -0.3362 -1.7663
 2205WAT      O22613   3.721   0.119   5.767 -0.0904 -0.0706  0.2427
 2205WAT     H122614   3.631   0.129   5.797 -0.4853 -1.8282 -0.2432
 2205WAT     H222615   3.722   0.158   5.680 -0.6609 -0.9525 -0.1703
 2206WAT      O22616   1.877   5.115   7.510 -0.1440 -0.1997  0.3143
 2206WAT     H122617   1.892   5.209   7.504 -0.3114 -0.2327 -0.8479
 2206WAT     H222618   1.839   5.102   7.597  1.9203  0.5059  1.3780
 2207WAT      O22619   2.229   1.033   0.660  0.0640  0.4242 -0.3563
 2207WAT     H122620   2.181   1.035   0.577 -0.1802 -0.5634 -0.2435
 2207WAT     H222621   2.321   1.043   0.635  0.3930 -3.1708 -1.0961
 2208WAT      O22622   1.294   2.398   0.080 -0.1250 -0.3548 -0.2225
 2208WAT     H122623   1.330   2.311   0.091  0.1480 -0.5166 -2.1102
 2208WAT     H222624   1.272   2.404  -0.013 -1.1593  1.1957  0.0765
 2209WAT      O22625   2.099   3.561   7.647 -0.0743  0.0777 -0.0135
 2209WAT     H122626   2.157   3.574   7.572  0.4927  0.2123  0.4480
 2209WAT     H222627   2.049   3.482   7.625 -0.7612  0.7828 -1.0619
 2210WAT      O22628   2.227   4.393   1.451  0.0191 -0.2126 -0.1712
 2210WAT     H122629   2.269   4.403   1.537 -0.4116  0.2177 -0.0019
 2210WAT     H222630   2.300   4.396   1.389  0.5094 -2.2254  0.2600
 2211WAT      O22631   5.746   2.400   6.606 -0.0393  0.2761  0.1172
 2211WAT     H122632   5.690   2.373   6.533  0.2934 -3.7613  1.1021
 2211WAT     H222633   5.691   2.393   6.683  0.5555  0.9682  0.6141
 2212WAT      O22634   3.893   1.723   7.732  0.1879  0.2043  0.3520
 2212WAT     H122635   3.801   1.719   7.709  0.2254 -1.3165  0.3530
 2212WAT     H222636   3.926   1.802   7.688 -0.8584  0.1348 -0.5904
 2213WAT      O22637   5.575   2.074   6.912  0.3010  0.0909  0.4149
 2213WAT     H122638   5.648   2.099   6.855 -0.0625  1.1702  0.3855
 2213WAT     H222639   5.612   2.072   7.000  0.5846 -0.3092  0.2833
 2214WAT      O22640   5.104   1.314   0.884  0.7181 -0.1131 -0.3586
 2214WAT     H122641   5.017   1.321   0.923  0.4587 -0.9978 -0.7691
 2214WAT     H222642   5.109   1.387   0.822  0.4365  0.1866 -0.0336
 2215WAT      O22643   0.256   0.253   6.260  0.1882  0.1147 -0.8647
 2215WAT     H122644   0.168   0.276   6.290  0.4033 -0.8599  0.6144
 2215WAT     H222645   0.280   0.323   6.199 -0.7223  1.6292  0.4564
 2216WAT      O22646   4.652   3.154   0.260  0.5632 -0.5219  0.3202
 2216WAT     H122647   4.627   3.109   0.179  1.6814 -1.0981  0.2779
 2216WAT     H222648   4.655   3.247   0.236 -0.3506 -0.5531  0.0352
 2217WAT      O22649   0.582   0.389   7.864 -0.3785 -0.1212  0.6157
 2217WAT     H122650   0.550   0.347   7.944  0.2752  1.1340  1.5702
 2217WAT     H222651   0.598   0.316   7.803  2.1014 -1.4599  2.6731
 2218WAT      O22652   0.136   0.754   0.891  0.0541 -0.3344 -0.2161
 2218WAT     H122653   0.142   0.676   0.945  1.1112 -0.0741  0.0735
 2218WAT     H222654   0.042   0.767   0.877 -0.1212 -3.1226 -2.4684
 2219WAT      O22655   5.107   0.842   6.384  0.1656  0.8953 -0.4629
 2219WAT     H122656   5.072   0.753   6.380 -1.6446  1.5300  0.2468
 2219WAT     H222657   5.033   0.898   6.358  0.2992  2.3661  2.0061
 2220WAT      O22658   4.149   0.987   0.298  0.7379 -0.0732 -0.0456
 2220WAT     H122659   4.189   0.933   0.365  0.6660 -0.0987 -0.0229
 2220WAT     H222660   4.074   1.028   0.342 -0.5205 -1.6309 -0.6381
 2221WAT      O22661   3.030   1.899   0.956  0.1243  0.3296 -0.1244
 2221WAT     H122662   2.952   1.918   0.904  0.0529 -1.0539 -0.5763
 2221WAT     H222663   2.999   1.836   1.022  0.5399  0.9395  0.6682
 2222WAT      O22664   3.567   2.928   1.428  0.2567  0.6728 -0.1259
 2222WAT     H122665   3.573   2.835   1.404  1.5107  0.9983 -1.2016
 2222WAT     H222666   3.523   2.928   1.512  1.5893 -1.0261  0.6430
 2223WAT      O22667   3.467   3.785   7.418 -0.4757 -0.0568 -0.1707
 2223WAT     H122668   3.378   3.803   7.386 -1.1176  0.7310  1.9108
 2223WAT     H222669   3.468   3.691   7.434 -1.4998  0.1507  1.2827
 2224WAT      O22670   6.064   1.336   6.708 -0.4755 -0.2582 -0.6856
 2224WAT     H122671   6.071   1.257   6.762  0.4651  0.2748  0.0125
 2224WAT     H222672   6.150   1.377   6.715 -1.2637  1.3899 -0.1368
 2225WAT      O22673   1.642   4.961   7.402 -0.0116 -0.3528 -0.6267
 2225WAT     H122674   1.729   4.977   7.439  1.3078 -2.8306 -2.4016
 2225WAT     H222675   1.626   5.037   7.346  1.5038 -0.3134 -1.0726
 2226WAT      O22676   2.507   5.143   2.580 -0.6990 -0.0649 -0.2400
 2226WAT     H122677   2.537   5.232   2.561  0.0356 -0.2011  0.2108
 2226WAT     H222678   2.457   5.151   2.661 -1.5250  0.0943 -0.7563
 2227WAT      O22679   1.197   5.350   0.491 -0.3717  0.5605 -0.5883
 2227WAT     H122680   1.191   5.270   0.543 -0.4495 -0.4186 -2.0368
 2227WAT     H222681   1.139   5.334   0.416 -1.8578  2.7462  0.0160
 2228WAT      O22682   5.978   0.241   0.504 -0.2578 -0.5541  0.3316
 2228WAT     H122683   5.960   0.252   0.598 -1.4783 -0.5100  0.1135
 2228WAT     H222684   6.072   0.223   0.500 -0.4848 -2.4222  1.7366
 2229WAT      O22685   2.187   4.246   1.790  0.2131  0.4021 -0.1881
 2229WAT     H122686   2.248   4.309   1.751  0.1851  0.0646 -0.7944
 2229WAT     H222687   2.160   4.191   1.716  1.3801 -1.2723  0.5612
 2230WAT      O22688   4.215   0.810   1.091  0.1845 -0.0651  0.5986
 2230WAT     H122689   4.161   0.883   1.120  0.8010  0.5821  0.1427
 2230WAT     H222690   4.294   0.815   1.145 -0.2397 -1.0755  1.3444
 2231WAT      O22691   4.313   2.651   5.907  0.2619  0.0997  0.0650
 2231WAT     H122692   4.385   2.666   5.969  0.1032  1.2260 -0.0004
 2231WAT     H222693   4.304   2.733   5.860  0.6365 -0.8545 -1.7584
 2232WAT      O22694   4.437   2.517   7.316  0.1222 -0.0139  0.2861
 2232WAT     H122695   4.500   2.445   7.314  1.8079  1.3880  0.7689
 2232WAT     H222696   4.446   2.558   7.230 -1.4842 -0.8613 -0.3303
 2233WAT      O22697   5.251   1.622   5.400 -0.1282 -0.1108  0.0478
 2233WAT     H122698   5.186   1.557   5.376 -1.1487  1.3449 -1.3181
 2233WAT     H222699   5.221   1.655   5.485 -1.0559  0.3888 -0.4666
 2234WAT      O22700   4.814   3.144   6.633 -0.1727 -0.2266  0.2378
 2234WAT     H122701   4.782   3.218   6.686 -0.9572  0.2612 -0.8672
 2234WAT     H222702   4.752   3.139   6.561  2.1666  0.6677 -1.9680
 2235WAT      O22703   5.967   1.085   7.538 -0.0568  0.2388 -0.1612
 2235WAT     H122704   6.031   1.015   7.545  0.6138  0.7649 -0.8076
 2235WAT     H222705   5.963   1.104   7.444  0.9185  2.0909  0.1256
 2236WAT      O22706   0.139   5.453   7.765 -0.3184  0.1287  0.4109
 2236WAT     H122707   0.108   5.449   7.675  0.2569 -1.6406  0.2484
 2236WAT     H222708   0.147   5.546   7.784  1.4311  0.5788 -2.0390
 2237WAT      O22709   3.412   3.129   5.565  0.5978  0.7418  0.1270
 2237WAT     H122710   3.483   3.078   5.603  0.0148  0.3777  0.7479
 2237WAT     H222711   3.333   3.095   5.607 -0.1618 -0.1707 -1.9259
 2238WAT      O22712   3.789   2.242   7.323  0.2049  0.9309 -0.0559
 2238WAT     H122713   3.717   2.199   7.370 -0.7280  1.9097 -0.5541
 2238WAT     H222714   3.770   2.335   7.330  1.8198  1.2591  0.4015
 2239WAT      O22715   2.938   1.356   6.968 -0.4145 -0.5310 -0.5368
 2239WAT     H122716   3.002   1.297   6.927  1.5127  0.4169  0.9148
 2239WAT     H222717   2.980   1.382   7.051 -2.7753  0.0638  0.5457
 2240WAT      O22718   5.633   2.930   1.673  0.0296 -0.0312 -0.9209
 2240WAT     H122719   5.615   2.841   1.703  2.4507 -0.5875 -0.9007
 2240WAT     H222720   5.690   2.919   1.597  0.2942  1.5084 -0.9816
 2241WAT      O22721   4.172   0.624   2.197 -0.7100  0.0142 -0.2099
 2241WAT     H122722   4.104   0.671   2.149  0.8835  1.1665 -1.4697
 2241WAT     H222723   4.219   0.575   2.130 -0.1159 -0.5307  0.5856
 2242WAT      O22724   4.409   3.376   0.808 -0.6665 -0.1130 -0.1644
 2242WAT     H122725   4.492   3.333   0.827 -0.8937 -1.3634 -1.7384
 2242WAT     H222726   4.398   3.367   0.713 -2.3512  0.4401 -0.0652
 2243WAT      O22727   4.229   3.260   0.195 -0.3020  0.1003 -0.3812
 2243WAT     H122728   4.161   3.298   0.250  1.1729  0.9975  0.8921
 2243WAT     H222729   4.234   3.319   0.120  0.0139  0.8321  0.1997
 2244WAT      O22730   2.515   2.218   7.428 -0.5070  0.3113 -0.0347
 2244WAT     H122731   2.452   2.149   7.449  1.5056 -1.4045  0.7578
 2244WAT     H222732   2.548   2.247   7.514 -1.0290  2.0011 -0.3791
 2245WAT      O22733   0.396   6.087   1.357  0.3810 -0.3439  0.4201
 2245WAT     H122734   0.376   5.994   1.353  0.3299 -0.4247  2.0278
 2245WAT     H222735   0.490   6.092   1.344  0.0678 -0.3239 -2.6702
 2246WAT      O22736   4.998   4.761   1.857 -0.6933  0.5209  0.1653
 2246WAT     H122737   4.987   4.779   1.763 -0.2978 -0.2818 -0.0405
 2246WAT     H222738   5.078   4.808   1.881 -0.2131 -0.1282 -0.1420
 2247WAT      O22739   5.977   1.373   2.157 -0.0389 -0.5490 -0.3826
 2247WAT     H122740   5.895   1.420   2.141 -0.6377 -1.0413  0.9998
 2247WAT     H222741   6.043   1.442   2.167  0.0870 -0.1822 -3.0916
 2248WAT      O22742   1.266   0.589   1.085  0.1325 -0.3886 -0.2174
 2248WAT     H122743   1.328   0.657   1.111  1.2099 -1.7281  0.9064
 2248WAT     H222744   1.297   0.558   1.000  1.0480 -1.0635  0.3478
 2249WAT      O22745   3.271   4.646   7.314  0.4188 -0.4280 -0.3186
 2249WAT     H122746   3.359   4.677   7.293  0.6275  1.0103  2.1894
 2249WAT     H222747   3.282   4.553   7.333  1.1572 -0.5238 -1.1394
 2250WAT      O22748   1.450   1.432   7.879 -0.2406  0.1946 -0.4166
 2250WAT     H122749   1.371   1.485   7.886  0.5080  1.1455  1.3096
 2250WAT     H222750   1.510   1.486   7.827  0.7822  1.4693  1.9496
 2251WAT      O22751   5.052   2.954   7.608  0.4702  0.1642 -0.1581
 2251WAT     H122752   4.980   3.010   7.638  0.7556 -0.3634  1.6191
 2251WAT     H222753   5.048   2.878   7.666  1.0628 -0.9499 -1.5215
 2252WAT      O22754   0.923   2.512   1.869  0.2644  0.3047 -0.0456
 2252WAT     H122755   0.976   2.440   1.834 -1.3690 -0.4749 -1.0335
 2252WAT     H222756   0.848   2.469   1.910 -0.2755  1.4153  0.1680
 2253WAT      O22757   3.838   5.208   1.002  0.2151  0.2656 -0.0577
 2253WAT     H122758   3.807   5.250   0.922 -0.8158  0.7475  0.5664
 2253WAT     H222759   3.933   5.216   0.999  0.2137 -0.0794 -1.4164
 2254WAT      O22760   6.026   5.204   0.475  0.7419  0.1652 -0.2225
 2254WAT     H122761   6.035   5.299   0.481  0.9537  0.1835 -0.8230
 2254WAT     H222762   6.112   5.173   0.449  0.8815 -0.2687  0.7205
 2255WAT      O22763   3.822   5.659   6.251 -0.0139  0.3331  0.0532
 2255WAT     H122764   3.744   5.615   6.216  0.9039  0.0463 -1.7576
 2255WAT     H222765   3.805   5.752   6.237 -0.9785  0.4513  1.7835
 2256WAT      O22766   6.100   0.707   5.051  0.3242  0.2066 -0.3143
 2256WAT     H122767   6.176   0.752   5.088 -0.8096  2.2051 -0.3273
 2256WAT     H222768   6.034   0.774   5.043 -1.0577 -1.2315 -1.5071
 2257WAT      O22769   3.142   4.124   0.978 -0.2748 -0.1337 -0.5421
 2257WAT     H122770   3.098   4.184   0.918 -0.7980  0.9996  0.9197
 2257WAT     H222771   3.072   4.084   1.029  0.2577  0.5177  0.7506
 2258WAT      O22772   4.947   5.948   7.325 -0.6386  0.5161 -0.1681
 2258WAT     H122773   5.010   5.969   7.255 -0.8987 -2.2878 -1.3771
 2258WAT     H222774   5.001   5.912   7.396 -0.7168 -1.0668 -0.8617
 2259WAT      O22775   2.894   2.556   1.437 -0.0535 -0.2275  0.3942
 2259WAT     H122776   2.890   2.475   1.488 -0.6692  0.5618  1.6685
 2259WAT     H222777   2.827   2.545   1.370  1.6988 -1.8477 -1.1958
 2260WAT      O22778   5.011   6.004   0.483  0.1070 -0.2578 -0.9414
 2260WAT     H122779   4.943   5.948   0.522 -1.7220  2.8818  0.7515
 2260WAT     H222780   4.964   6.057   0.419  0.9192  1.8798  0.1512
 2261WAT      O22781   1.352   4.375   7.295 -0.1301  0.0137  0.0593
 2261WAT     H122782   1.346   4.317   7.219 -2.7534  0.0106  0.2022
 2261WAT     H222783   1.265   4.375   7.333  0.6131  1.5789  1.9502
 2262WAT      O22784   3.614   2.991   6.487 -0.2376 -0.3596 -0.1236
 2262WAT     H122785   3.659   2.922   6.439  0.5234 -0.5304  0.8140
 2262WAT     H222786   3.521   2.977   6.468 -0.1310 -1.9063  0.4002
 2263WAT      O22787   0.071   4.279   0.463 -0.0776 -0.0649  0.7897
 2263WAT     H122788   0.000   4.328   0.504  0.1700 -0.7133  2.0383
 2263WAT     H222789   0.056   4.188   0.489  1.0995 -0.2361  0.9363
 2264WAT      O22790   4.467   4.313   7.490 -0.3107  0.1492 -0.2910
 2264WAT     H122791   4.490   4.297   7.582  0.5595 -0.4052 -0.5900
 2264WAT     H222792   4.424   4.398   7.491 -2.0749 -0.6888  0.8939
 2265WAT      O22793   4.041   5.898   0.906 -0.2241 -0.4774 -0.6449
 2265WAT     H122794   4.003   5.847   0.835 -0.8091 -0.8797 -0.0591
 2265WAT     H222795   4.091   5.834   0.957 -1.2712 -0.5684  0.3114
 2266WAT      O22796   1.011   5.504   0.647 -0.0650  0.0978 -0.1212
 2266WAT     H122797   1.102   5.474   0.646  0.2322  0.9363 -1.6004
 2266WAT     H222798   0.960   5.424   0.659  0.8245 -0.5202 -0.2890
 2267WAT      O22799   2.826   3.394   0.781 -0.6242 -0.5310  0.3224
 2267WAT     H122800   2.766   3.428   0.847  0.9204  0.8320  1.0841
 2267WAT     H222801   2.897   3.353   0.830  0.5321  0.4686 -0.4447
 2268WAT      O22802   2.650   2.784   7.701  0.0936 -0.2298  0.0494
 2268WAT     H122803   2.604   2.754   7.780 -1.4462  0.6479 -0.4741
 2268WAT     H222804   2.624   2.875   7.691 -0.1977 -0.4740 -1.7871
 2269WAT      O22805   3.424   2.522   0.747 -0.3585 -0.2867 -0.3467
 2269WAT     H122806   3.352   2.572   0.709 -0.2055  1.5234  1.5569
 2269WAT     H222807   3.503   2.570   0.722 -0.2491  0.9451  2.0090
 2270WAT      O22808   2.941   1.248   7.361  0.3349 -0.0530  0.0352
 2270WAT     H122809   2.886   1.184   7.403  0.7860 -0.1678  0.4600
 2270WAT     H222810   3.028   1.233   7.398  0.1876  1.7373  1.2349
 2271WAT      O22811   2.862   4.799   2.334  0.4618 -0.4835  0.6497
 2271WAT     H122812   2.849   4.884   2.293 -1.8137 -0.3236  1.5578
 2271WAT     H222813   2.881   4.819   2.426  1.7713 -0.9312  0.4982
 2272WAT      O22814   2.978   2.570   6.819 -0.2107 -0.3375  0.0097
 2272WAT     H122815   2.966   2.664   6.808  0.3908 -0.1435  0.9023
 2272WAT     H222816   3.068   2.561   6.852 -0.5612 -1.1549  0.7825
 2273WAT      O22817   5.940   1.523   7.886  0.1893 -0.4861  0.6473
 2273WAT     H122818   5.927   1.438   7.843 -0.0238  0.1339 -0.5405
 2273WAT     H222819   5.873   1.526   7.954 -0.7508 -0.6785 -0.2476
 2274WAT      O22820   5.841   3.481   7.537  0.1993 -0.2619 -0.2421
 2274WAT     H122821   5.914   3.528   7.577 -1.3111  0.9852  1.1584
 2274WAT     H222822   5.780   3.549   7.511 -1.3110 -1.3442  0.3455
 2275WAT      O22823   5.587   1.083   7.911  0.6095 -0.3101  0.1079
 2275WAT     H122824   5.500   1.062   7.876  0.2634  0.6545  0.3345
 2275WAT     H222825   5.647   1.033   7.856 -0.1381 -1.8407  0.6468
 2276WAT      O22826   3.017   4.241   6.956 -0.3759 -0.0261  0.1183
 2276WAT     H122827   2.960   4.191   6.898  0.0611  0.1166 -0.4355
 2276WAT     H222828   3.104   4.235   6.917  0.1194 -0.6982  1.2445
 2277WAT      O22829   5.135   3.980   0.110  0.2249 -0.2192 -0.5197
 2277WAT     H122830   5.072   4.036   0.155 -0.0809 -0.7490 -0.2870
 2277WAT     H222831   5.219   4.025   0.121 -0.3883  1.5399 -2.5581
 2278WAT      O22832   2.328   1.812   0.753  0.1933  0.0354 -0.4818
 2278WAT     H122833   2.238   1.825   0.724 -0.6336 -2.7826  0.4516
 2278WAT     H222834   2.362   1.900   0.769 -1.8104  1.2685 -2.4470
 2279WAT      O22835   0.848   2.412   0.540  0.2210  0.4297 -0.7717
 2279WAT     H122836   0.762   2.431   0.577  0.4702 -1.3427  0.8811
 2279WAT     H222837   0.898   2.375   0.613  2.4333  1.4393 -1.6649
 2280WAT      O22838   3.706   3.538   7.288 -0.1177  0.3713 -0.2771
 2280WAT     H122839   3.720   3.613   7.230  0.8847  0.1443 -0.3484
 2280WAT     H222840   3.616   3.510   7.271  0.6721 -0.7496 -2.9878
 2281WAT      O22841   1.713   1.252   7.240  0.4770 -0.7387 -0.7511
 2281WAT     H122842   1.739   1.344   7.241  0.3289 -0.6295  2.2387
 2281WAT     H222843   1.753   1.216   7.161  2.4531  1.3721 -0.7998
 2282WAT      O22844   5.213   4.167   7.153  0.7359 -0.2263 -1.2338
 2282WAT     H122845   5.133   4.115   7.150 -0.2897  0.7370  2.8468
 2282WAT     H222846   5.244   4.159   7.243  2.5726  3.2111 -1.3800
 2283WAT      O22847   5.143   5.959   1.214 -0.0489  0.5991  0.1494
 2283WAT     H122848   5.228   5.957   1.170  1.0572 -2.2238  2.1215
 2283WAT     H222849   5.094   5.888   1.174  0.3496 -0.8869  2.1319
 2284WAT      O22850   0.594   0.614   1.855  0.3372  0.3284  0.8241
 2284WAT     H122851   0.509   0.645   1.886 -0.4858  0.6070 -1.4753
 2284WAT     H222852   0.647   0.693   1.847  0.1020  0.4397  0.2962
 2285WAT      O22853   3.589   1.323   1.703 -0.1339  0.1578  0.4280
 2285WAT     H122854   3.599   1.327   1.798  0.2760  0.8220  0.3638
 2285WAT     H222855   3.496   1.302   1.690  0.1249 -1.4722  0.9808
 2286WAT      O22856   2.032   2.761   0.895  0.0900  0.1462  0.2072
 2286WAT     H122857   2.018   2.838   0.951  1.5626  1.1753 -0.7568
 2286WAT     H222858   1.945   2.741   0.860 -0.2903  1.6219  0.2202
 2287WAT      O22859   3.881   3.798   1.664  0.2594  0.2676  0.1905
 2287WAT     H122860   3.887   3.770   1.572 -0.9771  0.8394 -0.0817
 2287WAT     H222861   3.966   3.838   1.682  1.8239 -2.7797  0.3367
 2288WAT      O22862   4.937   3.794   5.995 -0.2992  0.7880 -0.2393
 2288WAT     H122863   4.861   3.777   6.049  0.2584  2.3973  1.1693
 2288WAT     H222864   4.985   3.711   5.995 -1.7986 -0.1105 -0.8035
 2289WAT      O22865   4.066   2.847   1.424 -0.2261 -0.1628  0.1390
 2289WAT     H122866   4.022   2.764   1.404 -0.9389  0.2419 -0.0230
 2289WAT     H222867   4.152   2.822   1.457 -0.6084 -0.9805  0.5262
 2290WAT      O22868   1.680   0.254   2.659 -0.6855  0.2041  0.1747
 2290WAT     H122869   1.669   0.211   2.574 -1.2409  2.2506 -0.8672
 2290WAT     H222870   1.596   0.243   2.703 -0.6215 -0.2852  0.1788
 2291WAT      O22871   4.771   3.349   6.823  0.1740 -0.2187 -0.3913
 2291WAT     H122872   4.703   3.383   6.881 -1.8260 -1.2670 -1.9779
 2291WAT     H222873   4.812   3.427   6.784 -0.2923  0.4279  0.3912
 2292WAT      O22874   1.434   0.311   1.206  0.6686 -0.2985 -0.7238
 2292WAT     H122875   1.484   0.238   1.243  0.4688 -0.3146 -0.4896
 2292WAT     H222876   1.496   0.383   1.202  0.6407 -0.2484 -0.2043
 2293WAT      O22877   1.204   5.806   6.936 -0.4569 -0.1074 -0.0848
 2293WAT     H122878   1.182   5.811   6.843 -1.1579  0.0311  0.0826
 2293WAT     H222879   1.203   5.896   6.966  1.8832  0.0742 -0.3945
 2294WAT      O22880   0.121   5.165   0.439 -0.3372  0.2480 -0.0512
 2294WAT     H122881   0.163   5.080   0.429  2.5116  1.5758 -0.2900
 2294WAT     H222882   0.135   5.209   0.355 -0.3250  1.5297  0.6007
 2295WAT      O22883   0.976   5.594   0.990  0.7864 -0.0863  0.2582
 2295WAT     H122884   1.040   5.525   0.972  2.3278  0.5200  2.8111
 2295WAT     H222885   1.025   5.675   0.975 -0.0239  0.4254  0.3594
 2296WAT      O22886   1.715   2.770   1.794 -0.5740 -1.0682 -0.5661
 2296WAT     H122887   1.760   2.810   1.868 -0.3319  2.1201 -2.2728
 2296WAT     H222888   1.752   2.681   1.788  1.7816 -0.2902  1.1201
 2297WAT      O22889   0.098   1.683   7.327 -0.1976 -0.4069  0.0570
 2297WAT     H122890   0.046   1.760   7.351  1.3103  0.7556 -0.2082
 2297WAT     H222891   0.035   1.611   7.325 -1.2932  0.3708  2.5336
 2298WAT      O22892   2.430   5.148   7.113 -0.2023  0.2649  0.5278
 2298WAT     H122893   2.455   5.239   7.097 -1.5362  0.7381  1.0176
 2298WAT     H222894   2.500   5.096   7.072  0.1195  1.4927 -0.5216
 2299WAT      O22895   2.597   1.090   7.697 -0.0174  0.2029  0.1658
 2299WAT     H122896   2.663   1.035   7.654 -0.2999  2.0010 -2.8374
 2299WAT     H222897   2.638   1.176   7.704 -0.8906  0.5548  1.3586
 2300WAT      O22898   3.494   2.513   5.582  0.5049  0.4256  0.3999
 2300WAT     H122899   3.408   2.522   5.540  0.3240 -0.7036  0.5019
 2300WAT     H222900   3.488   2.432   5.631  1.8735 -0.0388 -0.1601
 2301WAT      O22901   2.818   1.215   1.372  0.4846  0.2525  0.0763
 2301WAT     H122902   2.862   1.300   1.359  0.5562  0.2545  0.3335
 2301WAT     H222903   2.789   1.190   1.284 -1.0464  1.3642  0.2026
 2302WAT      O22904   0.772   4.074   6.230  0.0223 -0.2182  0.0929
 2302WAT     H122905   0.732   4.095   6.146 -1.9422  1.2653  1.3265
 2302WAT     H222906   0.753   4.149   6.286 -1.1585 -2.2768  2.6686
 2303WAT      O22907   4.097   6.152   0.862  0.0292 -0.0864  0.5140
 2303WAT     H122908   4.015   6.202   0.863  0.5291  0.7659 -0.1933
 2303WAT     H222909   4.071   6.066   0.894 -0.8163  0.6553  1.9747
 2304WAT      O22910   4.660   3.570   0.402 -0.7569  0.3632  0.0292
 2304WAT     H122911   4.619   3.555   0.316 -0.9462 -0.6170  0.2691
 2304WAT     H222912   4.600   3.629   0.448 -0.5700  1.0316 -0.5688
 2305WAT      O22913   4.374   1.035   0.850 -0.4411 -0.1132 -0.2683
 2305WAT     H122914   4.397   1.057   0.759  0.6659 -1.2166 -0.2908
 2305WAT     H222915   4.321   0.956   0.842  0.6535 -0.9014  0.0876
 2306WAT      O22916   1.012   5.046   6.166  0.3404  0.0540 -0.0265
 2306WAT     H122917   1.044   4.955   6.168 -1.0232 -0.4569 -0.4557
 2306WAT     H222918   1.074   5.092   6.110  0.5899 -0.8035 -0.4745
 2307WAT      O22919   5.452   1.321   1.611  0.6378  0.1738 -0.5183
 2307WAT     H122920   5.469   1.293   1.700  1.0420  0.6067 -0.4544
 2307WAT     H222921   5.488   1.251   1.556  2.0219  0.7343 -0.3741
 2308WAT      O22922   5.973   1.031   0.146 -0.2597  0.1167  0.6162
 2308WAT     H122923   5.941   0.964   0.086 -1.1662  0.3437  0.8269
 2308WAT     H222924   6.038   0.987   0.201  0.5784 -0.0975 -0.5142
 2309WAT      O22925   0.495   5.915   7.106  0.4509  0.4136  0.1724
 2309WAT     H122926   0.574   5.861   7.112 -0.1477 -0.4664  0.3357
 2309WAT     H222927   0.433   5.861   7.057 -1.2635 -0.4268  3.0634
 2310WAT      O22928   3.327   0.281   6.261 -0.2082 -0.1905  0.1660
 2310WAT     H122929   3.339   0.216   6.192 -2.3116  0.9347 -1.3842
 2310WAT     H222930   3.253   0.249   6.312 -0.7296  0.5457 -0.1024
 2311WAT      O22931   4.162   3.137   2.174 -0.3251  0.2583  0.3185
 2311WAT     H122932   4.102   3.063   2.182 -0.8127  0.2749 -2.3764
 2311WAT     H222933   4.104   3.212   2.158  0.1485  1.3398  3.0793
 2312WAT      O22934   4.677   0.305   7.410 -0.3785 -0.3651  0.1088
 2312WAT     H122935   4.714   0.286   7.497  1.3052 -0.4536 -0.5913
 2312WAT     H222936   4.720   0.243   7.352  1.1861  1.9466 -1.3634
 2313WAT      O22937   1.890   3.467   1.007  0.2069  0.3688  0.0818
 2313WAT     H122938   1.885   3.392   0.947 -0.8123 -0.6284  1.3649
 2313WAT     H222939   1.973   3.455   1.054  0.5148  0.5977 -0.3912
 2314WAT      O22940   4.145   0.814   1.704  0.2398 -0.2980  0.0771
 2314WAT     H122941   4.241   0.820   1.704  0.1929  1.2373 -0.6472
 2314WAT     H222942   4.116   0.905   1.717 -1.1131 -0.7217  0.1579
 2315WAT      O22943   5.605   5.736   0.773  0.5311  0.3772  0.0493
 2315WAT     H122944   5.576   5.645   0.768 -1.2343  0.7447  1.9613
 2315WAT     H222945   5.668   5.738   0.845  0.9561  0.5687 -0.3288
 2316WAT      O22946   1.504   3.853   0.249 -0.2555  0.0394  0.8612
 2316WAT     H122947   1.564   3.839   0.322  0.6258  1.5208  0.4511
 2316WAT     H222948   1.560   3.876   0.175 -1.1164 -1.5091 -0.3516
 2317WAT      O22949   5.073   1.063   0.949  0.1497  0.3619 -0.6574
 2317WAT     H122950   5.053   0.991   0.888  0.1046  0.5703 -0.8928
 2317WAT     H222951   5.086   1.139   0.892  0.9343  0.3847 -0.4575
 2318WAT      O22952   3.578   2.769   5.508 -0.3208  0.1290 -0.1267
 2318WAT     H122953   3.645   2.766   5.439  0.8588  0.5629  0.9618
 2318WAT     H222954   3.547   2.679   5.517 -0.2472  0.0114 -0.9751
 2319WAT      O22955   5.274   3.640   0.015  0.4689 -0.3712 -0.0758
 2319WAT     H122956   5.332   3.589  -0.041 -0.4869 -1.5855 -0.0104
 2319WAT     H222957   5.321   3.722   0.032  1.1507 -0.3325 -1.9386
 2320WAT      O22958   5.839   5.500   1.305  0.1636  0.1553 -0.0042
 2320WAT     H122959   5.911   5.463   1.356  0.2960 -1.6446 -1.3761
 2320WAT     H222960   5.788   5.551   1.368  2.3688  1.1140  1.0896
 2321WAT      O22961   1.984   2.806   7.839  0.5165  0.1211  0.5455
 2321WAT     H122962   1.888   2.811   7.832  0.6882  1.1154 -2.8056
 2321WAT     H222963   2.011   2.894   7.863  0.6531  0.1804  0.1771
 2322WAT      O22964   4.240   0.170   6.418 -0.2906  0.1670 -0.6372
 2322WAT     H122965   4.229   0.249   6.470 -2.8393 -0.1910 -0.5000
 2322WAT     H222966   4.177   0.108   6.456  0.9965 -1.6230 -1.3229
 2323WAT      O22967   2.885   4.647   0.860  0.6353 -0.1309  0.6517
 2323WAT     H122968   2.811   4.700   0.890  1.9011  0.6250  2.5854
 2323WAT     H222969   2.930   4.702   0.796  0.0190 -0.2745  0.0777
 2324WAT      O22970   1.676   3.106   7.863  0.2950 -0.0432  0.0436
 2324WAT     H122971   1.588   3.142   7.856 -0.2437 -1.1697  0.7498
 2324WAT     H222972   1.703   3.125   7.952  1.1139  1.0040 -0.4019
 2325WAT      O22973   0.346   2.123   7.299  0.0048  0.2256 -0.6385
 2325WAT     H122974   0.334   2.132   7.205  0.5463 -1.9157 -0.9492
 2325WAT     H222975   0.285   2.053   7.325 -0.1913  0.8238  0.6287
 2326WAT      O22976   5.145   2.712   7.755 -0.0489  0.4701 -0.2590
 2326WAT     H122977   5.093   2.638   7.721  1.0568 -0.2734 -0.3875
 2326WAT     H222978   5.223   2.714   7.699  0.2281  1.3525  0.1387
 2327WAT      O22979   5.185   1.046   2.127 -0.2870  0.4569 -0.2115
 2327WAT     H122980   5.260   1.105   2.118 -0.1487  0.0578 -2.1669
 2327WAT     H222981   5.132   1.061   2.049 -1.8808  0.1826  0.7599
 2328WAT      O22982   5.459   0.475   7.896  0.1062 -0.4436 -0.3520
 2328WAT     H122983   5.438   0.383   7.909  1.2802 -0.7938 -0.8288
 2328WAT     H222984   5.539   0.489   7.947  0.6505 -0.0243 -1.2806
 2329WAT      O22985   4.214   1.633   1.814 -0.1264 -0.0027 -0.2164
 2329WAT     H122986   4.145   1.694   1.841 -0.8324 -1.2392  0.8688
 2329WAT     H222987   4.259   1.611   1.895 -0.6184 -1.7873 -0.3916
 2330WAT      O22988   5.461   4.940   0.316 -0.1296  0.3799 -0.0972
 2330WAT     H122989   5.527   4.875   0.341  2.4524  2.6627 -0.4916
 2330WAT     H222990   5.457   4.935   0.221 -2.0205 -1.0303  0.0101
 2331WAT      O22991   5.156   4.290   0.442 -0.5239  0.2035  0.3025
 2331WAT     H122992   5.166   4.373   0.397  0.8255 -0.3473 -0.4767
 2331WAT     H222993   5.202   4.302   0.525 -1.5209  0.6544  0.8115
 2332WAT      O22994   4.590   0.860   7.770  0.4409  0.6842 -0.1999
 2332WAT     H122995   4.572   0.857   7.676 -2.0023  0.2301  0.2317
 2332WAT     H222996   4.585   0.769   7.798  2.6173  0.6248  0.1819
 2333WAT      O22997   2.133   1.914   0.012 -0.1080 -0.1088 -0.2580
 2333WAT     H122998   2.144   1.943   0.102  1.1348  0.7617 -0.6587
 2333WAT     H222999   2.143   1.819   0.015 -1.4948 -0.2511  0.6968
 2334WAT      O23000   4.973   0.377   7.182 -0.3025  0.6335 -0.5990
 2334WAT     H123001   4.899   0.353   7.126 -0.0966 -1.2871 -0.1397
 2334WAT     H223002   5.010   0.455   7.141 -1.9168  0.9972 -1.4484
 2335WAT      O23003   5.069   1.434   5.455 -0.0619 -0.5597 -0.0852
 2335WAT     H123004   5.093   1.345   5.482  0.5126 -0.0871  1.0534
 2335WAT     H223005   4.984   1.449   5.495  0.2494 -0.2857  0.4865
 2336WAT      O23006   0.675   3.256   6.293 -0.2359 -0.2938  0.2660
 2336WAT     H123007   0.610   3.285   6.357 -0.3769  0.6668 -0.2897
 2336WAT     H223008   0.757   3.293   6.324  0.4184 -2.9498  1.9268
 2337WAT      O23009   1.670   3.116   5.617  0.6994 -0.1668 -0.0505
 2337WAT     H123010   1.689   3.179   5.686  0.9444 -0.2849 -0.0108
 2337WAT     H223011   1.729   3.042   5.634 -0.3245 -0.8814  0.5445
 2338WAT      O23012   2.592   0.816   6.908  0.1275 -0.4986  0.0854
 2338WAT     H123013   2.674   0.834   6.862 -0.0618 -0.6956 -0.3252
 2338WAT     H223014   2.620   0.781   6.993  0.5451  2.0402  1.0977
 2339WAT      O23015   2.824   1.616   0.004  0.2659  0.2421 -0.3514
 2339WAT     H123016   2.837   1.710   0.009 -0.5796  0.4716 -1.8272
 2339WAT     H223017   2.739   1.606  -0.038 -0.4893 -1.1906  1.4097
 2340WAT      O23018   0.802   3.136   0.940  0.5839  0.1432  0.7687
 2340WAT     H123019   0.847   3.107   0.861 -0.1051  0.3645  0.2872
 2340WAT     H223020   0.784   3.229   0.926 -2.3911 -0.4695 -0.2630
 2341WAT      O23021   3.865   3.274   6.936  0.0931 -0.1279  0.2016
 2341WAT     H123022   3.872   3.338   6.866 -1.9703  0.4953  0.5135
 2341WAT     H223023   3.864   3.189   6.891  0.8081  0.1402 -0.3455
 2342WAT      O23024   0.888   1.717   0.275  0.4971  0.1738  0.3592
 2342WAT     H123025   0.880   1.776   0.200  1.0877  0.7855  0.7718
 2342WAT     H223026   0.799   1.684   0.289  0.1916  0.8398  0.0226
 2343WAT      O23027   2.476   3.373   6.675 -0.4387 -0.0259 -0.7025
 2343WAT     H123028   2.509   3.331   6.596  0.8543 -0.9286  0.2802
 2343WAT     H223029   2.398   3.323   6.699 -0.5465 -0.0605 -1.1271
 2344WAT      O23030   1.783   3.383   6.907  0.7028  0.3607 -0.3356
 2344WAT     H123031   1.864   3.336   6.887 -0.1927 -0.7181 -1.6345
 2344WAT     H223032   1.735   3.385   6.824 -1.0294  0.1251  0.6124
 2345WAT      O23033   4.910   1.517   7.732 -0.0471 -0.6506  0.5420
 2345WAT     H123034   4.921   1.457   7.806 -0.3884  0.1830  1.2857
 2345WAT     H223035   4.972   1.588   7.750  2.0567 -1.8280 -1.4972
 2346WAT      O23036   1.002   1.626   7.241  0.5175 -0.1552 -0.4595
 2346WAT     H123037   0.941   1.699   7.235 -0.1921 -0.8381 -2.6569
 2346WAT     H223038   0.978   1.581   7.322 -0.2832  0.9645 -0.0459
 2347WAT      O23039   4.383   2.089   6.711 -0.5023  0.2070 -0.0901
 2347WAT     H123040   4.406   2.014   6.765 -1.1868  0.5061  0.6228
 2347WAT     H223041   4.450   2.155   6.731  0.7385 -0.5433 -1.5015
 2348WAT      O23042   6.158   4.758   7.916 -0.0698  0.5027 -0.5308
 2348WAT     H123043   6.196   4.670   7.914  1.0035  0.8998  0.9857
 2348WAT     H223044   6.206   4.806   7.849  0.1128  0.2356 -0.5950
 2349WAT      O23045   6.069   4.388   6.867  0.1317  0.1652 -0.4192
 2349WAT     H123046   5.988   4.437   6.866 -0.9055 -1.4257  1.0296
 2349WAT     H223047   6.078   4.356   6.957  2.9247  1.1665 -0.2441
 2350WAT      O23048   4.960   3.877   1.610 -0.2767  0.1794 -0.0307
 2350WAT     H123049   4.922   3.926   1.683 -2.6115  1.2156 -1.8160
 2350WAT     H223050   4.913   3.793   1.610 -2.4174  1.2533 -1.9084
 2351WAT      O23051   3.241   4.002   7.056 -0.3383  0.4580  0.2466
 2351WAT     H123052   3.203   4.086   7.030 -0.8095  0.8119  1.9712
 2351WAT     H223053   3.334   4.021   7.068 -0.8802  1.5718  3.5795
 2352WAT      O23054   2.791   2.285   1.795  0.0749 -0.1978  0.0518
 2352WAT     H123055   2.715   2.266   1.850 -1.4041 -0.6795 -2.0186
 2352WAT     H223056   2.826   2.368   1.829 -2.1031  0.6656  0.3495
 2353WAT      O23057   1.868   1.657   7.637 -0.3602  0.0989  0.5232
 2353WAT     H123058   1.921   1.581   7.614 -1.2523 -0.8033  1.3633
 2353WAT     H223059   1.929   1.730   7.634  0.3315 -0.5023 -1.1554
 2354WAT      O23060   2.410   2.743   1.544  0.5333 -0.1108 -0.3223
 2354WAT     H123061   2.358   2.766   1.621  1.4653 -0.1163  0.3208
 2354WAT     H223062   2.385   2.807   1.478  1.3389  1.2910  0.6866
 2355WAT      O23063   5.781   0.653   7.709 -0.1240  0.6224 -0.8078
 2355WAT     H123064   5.772   0.560   7.729  0.7322  0.7617  0.2971
 2355WAT     H223065   5.691   0.686   7.704 -0.4660 -0.3781 -1.8970
 2356WAT      O23066   4.358   5.607   1.577 -0.0554  0.2971  0.4245
 2356WAT     H123067   4.440   5.594   1.625 -0.2303 -3.7544 -0.0110
 2356WAT     H223068   4.295   5.629   1.645  0.8901  0.9926  1.1131
 2357WAT      O23069   2.693   3.520   6.131 -0.3639  0.2887 -0.3577
 2357WAT     H123070   2.706   3.549   6.041  0.9365 -1.3040 -0.7111
 2357WAT     H223071   2.598   3.517   6.142 -0.5713  2.9484 -0.8194
 2358WAT      O23072   1.305   4.301   6.058 -0.2476 -0.0543 -0.0145
 2358WAT     H123073   1.263   4.386   6.066 -1.7027 -0.7287 -0.1749
 2358WAT     H223074   1.302   4.282   5.964  2.5253  0.8795 -0.3640
 2359WAT      O23075   5.487   4.004   0.629 -0.2574  0.1130 -0.3488
 2359WAT     H123076   5.525   4.057   0.560 -0.5083 -0.0879 -0.6426
 2359WAT     H223077   5.560   3.977   0.683 -0.1869  1.2990  0.1925
 2360WAT      O23078   1.382   0.313   0.892 -0.3284  0.2067  0.1524
 2360WAT     H123079   1.298   0.267   0.885 -1.0472  1.7065 -3.4867
 2360WAT     H223080   1.436   0.257   0.947 -2.0814 -3.5077 -1.5647
 2361WAT      O23081   2.226   5.945   0.640  0.7915 -0.0625  0.5329
 2361WAT     H123082   2.251   5.853   0.628  1.8984  0.3925 -0.9330
 2361WAT     H223083   2.298   5.983   0.691  2.1561  0.7542 -1.8622
 2362WAT      O23084   0.141   2.662   0.897  0.0162 -0.5282 -0.6184
 2362WAT     H123085   0.045   2.660   0.887  0.0787  0.3829 -1.5748
 2362WAT     H223086   0.170   2.732   0.838  1.1585  0.1345  0.6648
 2363WAT      O23087   2.189   5.828   6.928  0.0389  0.0118 -0.0063
 2363WAT     H123088   2.163   5.849   6.838 -1.3515  1.4721  0.7058
 2363WAT     H223089   2.276   5.867   6.938 -0.0537  0.3578 -0.5232
 2364WAT      O23090   3.433   6.127   0.379  0.3211  0.1603  0.3531
 2364WAT     H123091   3.476   6.199   0.334 -0.0714  0.4480  0.4342
 2364WAT     H223092   3.474   6.048   0.343 -1.3554  0.2716 -2.0071
 2365WAT      O23093   2.096   0.222   7.007  0.3977 -0.0380 -0.3761
 2365WAT     H123094   2.001   0.209   7.017  0.1056  2.1923  0.2931
 2365WAT     H223095   2.104   0.296   6.948  1.8029 -0.8312 -1.2400
 2366WAT      O23096   0.033   5.671   5.886 -0.3841 -0.8363 -0.2325
 2366WAT     H123097   0.118   5.710   5.865 -0.8679  0.2339 -0.2475
 2366WAT     H223098  -0.031   5.733   5.851 -1.2137  0.1917  2.8589
 2367WAT      O23099   0.853   5.198   0.970 -0.4142 -0.0546  0.4661
 2367WAT     H123100   0.808   5.115   0.980 -1.2345  0.2899 -0.3134
 2367WAT     H223101   0.945   5.178   0.989 -0.9105 -0.6752  2.5234
 2368WAT      O23102   5.853   5.492   7.323 -0.1443 -0.4669 -0.1364
 2368WAT     H123103   5.814   5.542   7.252  0.9737  1.6662  0.6736
 2368WAT     H223104   5.891   5.558   7.381  1.5633 -2.2685  0.9095
 2369WAT      O23105   0.784   4.116   5.924  0.3874 -0.0484 -0.2689
 2369WAT     H123106   0.811   4.145   5.837 -0.0171  0.1248 -0.3406
 2369WAT     H223107   0.689   4.105   5.918 -0.0728  2.4585  0.8098
 2370WAT      O23108   2.748   3.093   0.809 -0.0804 -0.1020  0.3514
 2370WAT     H123109   2.718   3.002   0.804  0.2259 -0.2707  1.4063
 2370WAT     H223110   2.748   3.113   0.902  0.1808  0.8812  0.1481
 2371WAT      O23111   0.233   2.357   0.871  0.3754 -0.2313  0.4805
 2371WAT     H123112   0.157   2.385   0.820 -0.0038  0.4605  1.4086
 2371WAT     H223113   0.219   2.264   0.886 -0.3972 -0.0655  0.8270
 2372WAT      O23114   2.111   2.448   6.337  0.1969 -0.2937  0.2595
 2372WAT     H123115   2.123   2.445   6.242 -0.2770  1.0156  0.1319
 2372WAT     H223116   2.188   2.494   6.370 -1.4739  3.0154  0.0158
 2373WAT      O23117   0.576   5.349   2.309 -0.4630  0.1402 -0.1336
 2373WAT     H123118   0.643   5.304   2.258 -1.5018 -1.0572 -0.4887
 2373WAT     H223119   0.580   5.307   2.395  0.3020  1.1688  0.3593
 2374WAT      O23120   5.077   2.941   6.359  0.3848 -0.1846  0.2349
 2374WAT     H123121   4.984   2.960   6.348 -0.0249 -0.9567  2.0224
 2374WAT     H223122   5.119   2.980   6.282 -1.4386 -0.1242 -0.7780
 2375WAT      O23123   4.076   2.999   7.186 -0.5645 -0.4293 -0.0222
 2375WAT     H123124   4.010   3.032   7.125  1.8798 -0.6599 -2.9863
 2375WAT     H223125   4.117   3.079   7.221 -2.3280 -0.2823  1.9086
 2376WAT      O23126   5.360   0.602   2.088  0.5751 -0.0085  0.6267
 2376WAT     H123127   5.267   0.583   2.100  0.5680 -0.0809  0.4615
 2376WAT     H223128   5.370   0.693   2.116  0.4221  0.0543  0.4793
 2377WAT      O23129   0.829   3.873   2.239 -0.4857  0.0574  0.8420
 2377WAT     H123130   0.911   3.876   2.288  0.3346 -1.7754 -0.3365
 2377WAT     H223131   0.785   3.794   2.270  0.2464 -1.3773 -1.6173
 2378WAT      O23132   5.405   5.425   1.092  0.0825  0.0265  0.1453
 2378WAT     H123133   5.312   5.404   1.103  0.1855 -0.5800 -0.0652
 2378WAT     H223134   5.437   5.358   1.031  1.0824 -0.9547  1.6687
 2379WAT      O23135   2.313   4.765   0.384  0.3197 -0.4103 -0.0208
 2379WAT     H123136   2.345   4.790   0.471 -0.0328 -0.0814  0.0188
 2379WAT     H223137   2.258   4.688   0.400  0.4504 -0.4960  0.0160
 2380WAT      O23138   1.921   6.048   0.906 -0.1473 -0.6510  0.3559
 2380WAT     H123139   1.872   5.997   0.971 -0.2106 -0.7624  0.2223
 2380WAT     H223140   1.960   5.982   0.848  0.0963 -0.5600  0.4168
 2381WAT      O23141   5.867   1.802   6.072  0.5357  0.0849 -0.8986
 2381WAT     H123142   5.826   1.777   5.989 -1.0617  2.5125 -0.9384
 2381WAT     H223143   5.944   1.853   6.047 -0.3523  1.4387 -0.9351
 2382WAT      O23144   3.936   5.517   0.050 -0.3118  0.2177  0.0924
 2382WAT     H123145   3.876   5.552  -0.015 -1.0594  0.2567  0.7896
 2382WAT     H223146   3.919   5.568   0.129 -0.3879 -0.7216  0.7067
 2383WAT      O23147   4.564   2.597   7.621  0.5693 -0.0943  0.1904
 2383WAT     H123148   4.567   2.571   7.529 -0.5117  0.7061 -0.0942
 2383WAT     H223149   4.473   2.622   7.636  0.8755  0.4215  1.3031
 2384WAT      O23150   2.911   1.133   2.320  0.0918 -0.0411  0.2367
 2384WAT     H123151   2.895   1.084   2.401  1.1944  0.9153  1.0724
 2384WAT     H223152   2.987   1.090   2.281  0.5675  0.4952  0.5602
 2385WAT      O23153   2.287   1.868   6.077 -0.2649 -0.2301 -0.0281
 2385WAT     H123154   2.250   1.946   6.036 -1.0377 -0.4042  0.3166
 2385WAT     H223155   2.369   1.853   6.031 -0.3849  0.4553 -0.4798
 2386WAT      O23156   3.646   5.060   7.265 -0.6836  0.2737  0.2052
 2386WAT     H123157   3.729   5.094   7.299 -0.8424  2.0574 -1.0849
 2386WAT     H223158   3.667   5.033   7.175 -0.7654 -2.4138  0.9105
 2387WAT      O23159   5.051   3.384   0.930  0.5605 -0.1101 -0.1147
 2387WAT     H123160   5.010   3.326   0.866 -0.7191  0.2416  0.3667
 2387WAT     H223161   5.128   3.419   0.885 -0.6404  0.6167 -1.7113
 2388WAT      O23162   0.038   3.510   6.814 -0.5579  0.5479  0.4083
 2388WAT     H123163   0.082   3.517   6.899 -0.1641 -0.1016  0.2656
 2388WAT     H223164  -0.053   3.532   6.833 -0.6455 -0.3790  1.1695
 2389WAT      O23165   5.370   0.422   1.527  0.3556  0.0926  0.7261
 2389WAT     H123166   5.455   0.467   1.532 -0.4771  2.1515 -1.5166
 2389WAT     H223167   5.325   0.447   1.608  0.7971  1.4834  0.5676
 2390WAT      O23168   1.205   4.404   1.647  0.1814 -0.7018 -0.2370
 2390WAT     H123169   1.292   4.364   1.635  2.6268  2.8250  3.2078
 2390WAT     H223170   1.211   4.488   1.602 -0.5466  0.4962  1.7559
 2391WAT      O23171   3.640   2.962   7.758 -0.3123  0.2454  0.3119
 2391WAT     H123172   3.668   2.872   7.743  0.9016  0.7052 -0.2608
 2391WAT     H223173   3.602   2.990   7.675  1.2138  0.9237 -0.1885
 2392WAT      O23174   3.657   5.039   1.159 -0.4095 -0.1059  0.2517
 2392WAT     H123175   3.568   5.073   1.146 -0.0889  0.3899 -0.8059
 2392WAT     H223176   3.705   5.067   1.081  0.2946 -1.6474  0.0852
 2393WAT      O23177   6.145   2.039   0.762  0.0124  0.2889 -0.4414
 2393WAT     H123178   6.134   1.968   0.825  3.6843 -0.5423 -0.5558
 2393WAT     H223179   6.227   2.081   0.787 -0.1429  2.0813 -2.6671
 2394WAT      O23180   2.798   5.666   7.580  0.1414 -0.1026 -0.3225
 2394WAT     H123181   2.787   5.703   7.493  0.3517  0.0393 -0.2878
 2394WAT     H223182   2.805   5.571   7.565  4.0121  0.1275 -0.8642
 2395WAT      O23183   2.184   2.638   0.396 -0.2787  0.4636  0.0160
 2395WAT     H123184   2.090   2.623   0.385 -0.4658  0.2464  1.7018
 2395WAT     H223185   2.189   2.709   0.460  0.7175 -0.8132  1.3793
 2396WAT      O23186   3.976   3.414   1.620 -0.1517 -0.1275 -0.1026
 2396WAT     H123187   4.013   3.456   1.697 -0.3069 -1.1318  0.5468
 2396WAT     H223188   3.882   3.435   1.624 -0.5753 -1.9041  1.2224
 2397WAT      O23189   2.997   5.336   7.327 -0.0188  0.6062  0.0270
 2397WAT     H123190   2.904   5.343   7.305 -0.0161  1.5400  0.2754
 2397WAT     H223191   3.040   5.319   7.243 -0.4568 -0.3610 -0.0150
 2398WAT      O23192   3.072   2.722   7.742  0.0337  0.6131 -0.4447
 2398WAT     H123193   3.146   2.778   7.720  0.7390 -0.7851 -1.7476
 2398WAT     H223194   3.010   2.736   7.670 -0.5718  1.0608  0.1547
 2399WAT      O23195   2.544   5.171   7.538 -0.0222  0.0582 -0.1873
 2399WAT     H123196   2.577   5.261   7.543  1.7600 -0.4443 -1.6093
 2399WAT     H223197   2.622   5.117   7.550 -0.3525 -1.2294 -2.9956
 2400WAT      O23198   1.641   3.322   6.687 -0.0915  0.0049  0.1731
 2400WAT     H123199   1.648   3.385   6.615 -0.2785  0.1789  0.3052
 2400WAT     H223200   1.606   3.243   6.646  2.4915 -0.8769 -0.4826
 2401WAT      O23201   0.342   3.168   6.266 -0.5344 -0.3683  0.0337
 2401WAT     H123202   0.253   3.133   6.265 -0.4855 -0.6170  1.5705
 2401WAT     H223203   0.359   3.187   6.358  0.3319  1.4527 -0.4548
 2402WAT      O23204   0.310   0.268   0.343 -0.0927  0.3923 -0.7906
 2402WAT     H123205   0.405   0.277   0.334  0.1457 -0.0767  0.9570
 2402WAT     H223206   0.281   0.353   0.377  0.3918 -0.8554  3.1399
 2403WAT      O23207   4.088   1.677   7.279 -0.1403  0.3399 -0.0081
 2403WAT     H123208   4.156   1.744   7.270  0.7316 -0.7670 -2.8446
 2403WAT     H223209   4.048   1.672   7.192 -2.8197 -0.1760  1.1743
 2404WAT      O23210   4.112   2.951   0.421  0.1905 -0.3223  0.3258
 2404WAT     H123211   4.180   2.926   0.358 -0.7658 -0.2552 -0.7770
 2404WAT     H223212   4.074   2.868   0.451 -0.5032 -0.3266 -0.5197
 2405WAT      O23213   5.807   1.086   7.741 -0.6283  0.4878  0.1465
 2405WAT     H123214   5.790   1.178   7.724  0.6936  0.8312  0.5137
 2405WAT     H223215   5.858   1.057   7.665 -3.7118 -0.8599 -1.6083
 2406WAT      O23216   2.054   0.128   6.615  0.0610  0.0830  0.2957
 2406WAT     H123217   2.065   0.054   6.556  2.3571  0.3950  0.2487
 2406WAT     H223218   2.140   0.171   6.616 -0.4666  1.2055  2.3692
 2407WAT      O23219   5.631   1.904   7.448 -0.7569 -0.3358  0.4378
 2407WAT     H123220   5.593   1.936   7.366  1.0483 -1.8099 -1.0720
 2407WAT     H223221   5.567   1.841   7.481 -1.0484 -0.4978 -0.4102
 2408WAT      O23222   3.527   3.947   0.378 -0.1362  0.7493  0.3164
 2408WAT     H123223   3.569   3.867   0.347 -0.9218  0.6455 -0.4838
 2408WAT     H223224   3.485   3.921   0.460  0.8918  0.7304  0.8643
 2409WAT      O23225   3.704   2.654   1.907 -0.1224 -0.0649  0.0497
 2409WAT     H123226   3.748   2.732   1.939 -1.0817  0.6051 -0.2317
 2409WAT     H223227   3.628   2.687   1.859 -0.1956 -1.1449 -0.6086
 2410WAT      O23228   0.427   5.520   6.368  0.0660  0.3563 -0.7319
 2410WAT     H123229   0.457   5.564   6.288 -0.3723  0.5512 -0.7900
 2410WAT     H223230   0.496   5.537   6.432  1.4442 -1.4901 -1.6105
 2411WAT      O23231   3.454   0.626   0.252 -0.9451 -0.3631 -0.6911
 2411WAT     H123232   3.460   0.676   0.334  1.1240 -0.3871 -0.7754
 2411WAT     H223233   3.361   0.621   0.234 -1.3195  1.8037  0.3426
 2412WAT      O23234   1.877   1.965   1.352  0.1241  0.0289 -0.1400
 2412WAT     H123235   1.893   1.941   1.260 -0.8050 -2.3273  0.2510
 2412WAT     H223236   1.962   1.952   1.394  0.4041  0.5222 -0.5346
 2413WAT      O23237   0.122   0.154   6.930  1.3139  0.1778  0.0633
 2413WAT     H123238   0.215   0.140   6.914  1.2678  0.9127 -0.8966
 2413WAT     H223239   0.078   0.110   6.857  0.9797  1.1188 -0.3131
 2414WAT      O23240   2.761   2.436   1.220 -0.2299  0.5389 -0.1487
 2414WAT     H123241   2.793   2.438   1.130 -2.0277  1.6504 -0.8258
 2414WAT     H223242   2.671   2.470   1.214  0.2060  2.3879  2.3021
 2415WAT      O23243   2.988   3.850   1.201  0.2782  0.3685 -0.3588
 2415WAT     H123244   2.971   3.790   1.274 -0.8255 -2.3125 -2.6390
 2415WAT     H223245   2.937   3.928   1.222 -0.1593 -0.3943  1.6207
 2416WAT      O23246   2.168   0.375   0.997 -0.2208 -0.1220  0.2108
 2416WAT     H123247   2.116   0.453   1.018  1.9934  1.2281  1.0078
 2416WAT     H223248   2.103   0.308   0.976 -2.2094  2.2295 -1.7375
 2417WAT      O23249   1.075   3.855   1.256 -0.0128 -0.3691  0.1811
 2417WAT     H123250   1.108   3.910   1.326 -0.0083 -0.0718 -0.0538
 2417WAT     H223251   0.983   3.879   1.246  0.4610  1.0773 -1.2828
 2418WAT      O23252   5.409   4.675   7.155 -0.0710 -0.1480  0.2499
 2418WAT     H123253   5.440   4.700   7.068 -0.3052 -0.6812  0.0123
 2418WAT     H223254   5.427   4.582   7.162  0.8678  0.0817  1.1669
 2419WAT      O23255   0.373   1.378   0.415 -0.0714  0.4673 -0.3212
 2419WAT     H123256   0.364   1.285   0.436 -2.9314  0.7144 -0.0396
 2419WAT     H223257   0.459   1.402   0.449 -0.3557 -1.4829  2.0554
 2420WAT      O23258   1.732   0.363   0.098 -0.6199 -0.4160 -0.6434
 2420WAT     H123259   1.729   0.436   0.160 -0.5090 -1.2715  0.3968
 2420WAT     H223260   1.802   0.387   0.037  2.1188 -1.3368  1.9178
 2421WAT      O23261   2.259   5.727   7.542  0.1784 -0.0719 -0.4492
 2421WAT     H123262   2.223   5.816   7.540  1.2002  0.3971  0.6574
 2421WAT     H223263   2.339   5.732   7.490  0.4198 -0.2602 -0.0996
 2422WAT      O23264   0.179   2.120   0.332  0.5987 -0.3054  0.9557
 2422WAT     H123265   0.086   2.101   0.344  0.5484 -1.0208 -0.3670
 2422WAT     H223266   0.192   2.204   0.376 -1.2203  0.9647 -0.7247
 2423WAT      O23267   5.479   2.078   0.049  0.3102  0.6851  0.2834
 2423WAT     H123268   5.461   2.154  -0.007  1.3958  0.6909 -0.0809
 2423WAT     H223269   5.514   2.116   0.130 -0.5967  0.6399  0.7111
 2424WAT      O23270   3.417   2.626   1.324  0.0420  0.1450 -0.9873
 2424WAT     H123271   3.387   2.577   1.248  1.1028 -0.8491 -0.7993
 2424WAT     H223272   3.512   2.635   1.311  0.1000  0.7602 -0.2279
 2425WAT      O23273   1.703   4.268   7.634 -0.3320  0.1805 -0.1171
 2425WAT     H123274   1.732   4.219   7.557  0.4047 -1.0838  0.9204
 2425WAT     H223275   1.631   4.322   7.602  0.2990  0.1000 -1.8048
 2426WAT      O23276   4.755   4.319   0.278 -0.6653  0.0063  1.0089
 2426WAT     H123277   4.704   4.266   0.339 -1.5456 -0.7099 -0.2931
 2426WAT     H223278   4.700   4.396   0.263 -0.4400  0.1920  1.1434
 2427WAT      O23279   1.221   2.750   7.815 -0.3699  0.6886 -0.1595
 2427WAT     H123280   1.260   2.798   7.742  0.2586 -0.4930 -0.6333
 2427WAT     H223281   1.184   2.818   7.871  1.8494  1.8354  0.0134
 2428WAT      O23282   1.672   0.849   0.839 -0.8243 -0.1417  0.2684
 2428WAT     H123283   1.735   0.918   0.863  1.0158 -1.8387  0.5444
 2428WAT     H223284   1.627   0.884   0.762  1.7314  0.4803 -1.0759
 2429WAT      O23285   1.237   4.302   0.955  0.6855  1.1373  0.1416
 2429WAT     H123286   1.149   4.285   0.920  0.2063  0.0012  1.7893
 2429WAT     H223287   1.281   4.350   0.886 -0.5156 -0.1610 -1.6138
 2430WAT      O23288   3.862   4.647   7.758  0.4842 -0.1842  0.0206
 2430WAT     H123289   3.877   4.698   7.679 -0.1436  1.1044  0.7083
 2430WAT     H223290   3.818   4.568   7.728 -0.1248  0.4820 -0.8755
 2431WAT      O23291   2.414   5.473   7.268  0.4618 -0.1304 -0.3167
 2431WAT     H123292   2.324   5.443   7.280  1.0357 -2.0171 -0.3849
 2431WAT     H223293   2.428   5.535   7.339 -0.7230 -0.2072  0.0149
 2432WAT      O23294   4.546   0.712   1.514  0.1665 -0.5506 -0.2982
 2432WAT     H123295   4.595   0.793   1.518  0.7128 -0.9281  0.8649
 2432WAT     H223296   4.583   0.665   1.439 -0.7424  0.6175 -1.5284
 2433WAT      O23297   0.007   5.188   7.188  0.0423  0.5817  0.4070
 2433WAT     H123298   0.080   5.130   7.210 -0.1263  0.9602  2.0717
 2433WAT     H223299   0.043   5.248   7.122  0.0312 -1.7641 -1.8839
 2434WAT      O23300   3.785   5.520   1.882 -0.1492 -0.2435 -0.7198
 2434WAT     H123301   3.778   5.497   1.789 -1.7707  0.0636 -0.6990
 2434WAT     H223302   3.855   5.586   1.885 -1.7793  1.6765 -2.1431
 2435WAT      O23303   3.454   1.298   0.079  0.6495 -0.1582 -0.2491
 2435WAT     H123304   3.397   1.284   0.003 -0.2856 -1.3860  0.6193
 2435WAT     H223305   3.539   1.321   0.042  0.1223 -0.3767 -1.6559
 2436WAT      O23306   5.968   3.724   0.749 -0.0806  0.4084 -0.1480
 2436WAT     H123307   5.953   3.750   0.840  0.9676 -0.7684  0.4012
 2436WAT     H223308   5.909   3.650   0.735  1.1272 -0.6900  0.2595
 2437WAT      O23309   3.755   4.590   6.206 -0.6589 -0.3490  0.7174
 2437WAT     H123310   3.681   4.626   6.255 -1.6715 -0.5975 -0.5675
 2437WAT     H223311   3.801   4.666   6.172  0.0230 -0.1778  1.9872
 2438WAT      O23312   2.736   2.845   0.124 -0.0950  1.0412  0.2854
 2438WAT     H123313   2.760   2.850   0.216 -1.6730  1.1501  0.7220
 2438WAT     H223314   2.807   2.891   0.078  2.8538 -2.4560  0.9469
 2439WAT      O23315   2.734   1.501   1.379 -0.1238 -0.1322 -0.3535
 2439WAT     H123316   2.768   1.552   1.453 -0.1078  0.8660 -1.0201
 2439WAT     H223317   2.641   1.522   1.377 -0.1775 -0.3823 -0.4368
 2440WAT      O23318   2.521   2.534   1.168 -0.4123 -0.3888 -0.0411
 2440WAT     H123319   2.547   2.587   1.093 -1.0436 -0.4311 -0.2931
 2440WAT     H223320   2.426   2.545   1.174 -0.3409 -0.1300  0.9454
 2441WAT      O23321   3.498   4.026   7.532 -1.0344  0.0150  0.2386
 2441WAT     H123322   3.510   3.940   7.492 -0.4809 -0.7231  1.9219
 2441WAT     H223323   3.488   4.008   7.626 -1.0254  1.7788  0.6097
 2442WAT      O23324   2.241   4.975   0.117  0.8902 -0.1757 -0.3146
 2442WAT     H123325   2.245   4.934   0.203  2.6307  0.0165 -0.2604
 2442WAT     H223326   2.231   5.068   0.134 -1.0822 -0.3299 -0.4022
 2443WAT      O23327   5.314   1.319   6.876  0.2458 -0.2613  0.1752
 2443WAT     H123328   5.284   1.228   6.870 -1.5118  0.1875  1.2538
 2443WAT     H223329   5.307   1.352   6.786 -1.0323 -0.6487  0.1110
 2444WAT      O23330   5.157   3.437   1.590  0.4070  0.1156  0.2209
 2444WAT     H123331   5.109   3.497   1.646 -0.9581 -0.5867 -0.1584
 2444WAT     H223332   5.190   3.492   1.519 -0.0227  0.5659  0.3701
 2445WAT      O23333   1.443   1.325   6.881 -0.0619 -0.0037 -0.2969
 2445WAT     H123334   1.489   1.376   6.948 -0.4726 -0.1388  0.0923
 2445WAT     H223335   1.449   1.379   6.802  1.5842 -0.4461 -0.5085
 2446WAT      O23336   0.534   1.845   7.643 -0.7258  0.1997 -0.0970
 2446WAT     H123337   0.528   1.908   7.714  0.1821 -0.2076  0.3622
 2446WAT     H223338   0.443   1.829   7.617 -1.0218  0.8994  0.4759
 2447WAT      O23339   5.140   2.866   5.963  0.1848 -0.1008  0.0053
 2447WAT     H123340   5.095   2.833   5.886 -1.8392 -1.8604  1.8093
 2447WAT     H223341   5.092   2.945   5.987  0.5020  0.1685 -0.2362
 2448WAT      O23342   1.605   0.911   5.991 -0.2337  0.3656 -0.0037
 2448WAT     H123343   1.679   0.868   5.948 -0.6585  0.5041 -0.8831
 2448WAT     H223344   1.564   0.963   5.923 -0.4404  1.2449  0.7718
 2449WAT      O23345   5.265   3.370   7.449 -0.1262 -0.0749 -0.1411
 2449WAT     H123346   5.252   3.448   7.504 -1.1914 -0.1786 -0.2105
 2449WAT     H223347   5.176   3.337   7.434  0.3741 -2.5573  1.6593
 2450WAT      O23348   5.715   2.578   1.394 -0.3208 -0.2977 -0.2804
 2450WAT     H123349   5.795   2.536   1.364  0.2561  0.4740  0.1538
 2450WAT     H223350   5.680   2.622   1.317  0.1687  0.1280 -0.2629
 2451WAT      O23351   0.575   3.605   1.902  0.4694  0.2613  0.0095
 2451WAT     H123352   0.622   3.688   1.911 -0.9034  1.0094  0.5923
 2451WAT     H223353   0.605   3.552   1.976  1.5483  0.1237 -0.5153
 2452WAT      O23354   1.218   4.988   6.605  0.0103 -0.0810 -0.0033
 2452WAT     H123355   1.141   4.959   6.654  0.5952 -0.7606  0.5344
 2452WAT     H223356   1.291   4.946   6.649  0.5800 -0.4358 -1.2542
 2453WAT      O23357   5.943   6.142   1.254 -0.1960  0.1568 -0.5233
 2453WAT     H123358   5.976   6.066   1.302 -0.5721 -0.1255 -0.7206
 2453WAT     H223359   5.909   6.107   1.172 -1.2986  0.4246 -0.1796
 2454WAT      O23360   0.044   2.025   7.919  0.5448 -0.2420 -0.0280
 2454WAT     H123361   0.010   1.983   7.998  1.4644  1.1247  1.1269
 2454WAT     H223362  -0.010   1.989   7.849 -0.6964 -1.0392  1.2759
 2455WAT      O23363   1.787   0.649   0.149 -0.1819  0.7466 -0.3139
 2455WAT     H123364   1.780   0.658   0.054  0.1749 -1.5865 -0.6233
 2455WAT     H223365   1.703   0.681   0.182 -0.1722  1.9342 -1.3570
 2456WAT      O23366   1.171   1.920   7.680 -1.0993 -0.1041 -0.0606
 2456WAT     H123367   1.251   1.867   7.683 -2.2627 -1.8991  1.1313
 2456WAT     H223368   1.157   1.948   7.770 -1.7784  0.2527 -0.2681
 2457WAT      O23369   0.507   3.317   2.255  0.3609 -0.2193  0.2864
 2457WAT     H123370   0.414   3.307   2.234  0.3102 -0.6494  0.6922
 2457WAT     H223371   0.521   3.259   2.330  0.9901 -0.2695  0.1372
 2458WAT      O23372   3.750   1.151   1.209  0.2741  0.1240 -0.1328
 2458WAT     H123373   3.741   1.210   1.284  1.8062 -1.0521  1.0407
 2458WAT     H223374   3.798   1.203   1.144  0.7558  0.4964  0.5048
 2459WAT      O23375   2.980   2.900   7.941 -0.2079  0.2731 -0.2991
 2459WAT     H123376   3.033   2.875   8.017 -2.3766 -1.5772  0.7537
 2459WAT     H223377   3.013   2.846   7.870  2.3281  2.5391 -0.9984
 2460WAT      O23378   2.387   0.895   0.114 -0.2812  0.2208  0.8479
 2460WAT     H123379   2.419   0.841   0.186  0.5265 -0.5882 -0.0926
 2460WAT     H223380   2.321   0.841   0.070  1.0464 -0.3700 -0.5420
 2461WAT      O23381   3.274   2.900   7.636  0.3795 -0.0996 -0.4198
 2461WAT     H123382   3.357   2.926   7.595 -0.6047 -1.2081 -3.3998
 2461WAT     H223383   3.209   2.959   7.598 -0.3993 -0.1128  0.8557
 2462WAT      O23384   1.524   1.497   0.761  0.4852 -0.0570 -0.1343
 2462WAT     H123385   1.582   1.423   0.777 -1.6072 -1.7730 -0.0244
 2462WAT     H223386   1.509   1.497   0.667  0.2082  0.0070 -0.0922
 2463WAT      O23387   4.390   4.541   6.332  0.3453  0.4107 -0.2762
 2463WAT     H123388   4.430   4.558   6.417  0.7225  1.9997 -0.7353
 2463WAT     H223389   4.453   4.576   6.269 -0.6694  0.7156 -1.1406
 2464WAT      O23390   0.049   0.252   0.562  0.0016 -0.5045  0.0847
 2464WAT     H123391   0.132   0.296   0.546 -0.1423  0.5989  2.0998
 2464WAT     H223392   0.074   0.169   0.603  0.1281 -0.1429  0.7546
 2465WAT      O23393   0.779   1.546   1.884  0.0846 -0.4993  0.4961
 2465WAT     H123394   0.768   1.639   1.901 -1.9168 -0.4696 -0.7233
 2465WAT     H223395   0.818   1.542   1.797  0.9032 -0.8134  0.8642
 2466WAT      O23396   2.526   2.059   5.952  0.0502  0.5984 -0.3534
 2466WAT     H123397   2.449   2.110   5.928 -1.2062 -1.0715 -0.0570
 2466WAT     H223398   2.591   2.082   5.885 -1.4724  0.3346 -2.0022
 2467WAT      O23399   0.401   2.682   6.479  0.0413 -0.7144 -0.1178
 2467WAT     H123400   0.497   2.685   6.469  0.0643 -0.8954  0.0455
 2467WAT     H223401   0.385   2.599   6.524 -0.2681 -1.1489 -1.0063
 2468WAT      O23402   3.631   5.600   0.168  0.7013  0.2747 -0.9869
 2468WAT     H123403   3.658   5.510   0.186  1.1542  0.3610 -1.2083
 2468WAT     H223404   3.542   5.592   0.134  0.4393 -0.0173 -0.2544
 2469WAT      O23405   4.564   3.727   0.136 -0.0574 -0.9295  0.1054
 2469WAT     H123406   4.488   3.744   0.192 -0.3353 -0.7458 -0.3146
 2469WAT     H223407   4.526   3.694   0.054  0.3921 -2.1510  0.3633
 2470WAT      O23408   0.169   3.282   0.497 -0.3349 -0.1662  0.6675
 2470WAT     H123409   0.146   3.231   0.575 -1.8387 -0.6883 -0.0712
 2470WAT     H223410   0.085   3.316   0.466  0.0710 -0.9431 -1.3853
 2471WAT      O23411   4.971   0.630   6.959 -0.0593  0.2056 -0.1827
 2471WAT     H123412   5.010   0.714   6.937 -0.7174  0.6921  0.4888
 2471WAT     H223413   4.899   0.651   7.019 -0.9089 -0.7304 -0.8396
 2472WAT      O23414   4.264   2.886   1.051 -0.6516  0.1022 -0.6095
 2472WAT     H123415   4.299   2.975   1.043  1.0742 -0.5205 -0.6004
 2472WAT     H223416   4.291   2.843   0.969 -0.7127 -0.6313 -0.2544
 2473WAT      O23417   0.648   0.830   7.451  0.2145  0.0173  0.4202
 2473WAT     H123418   0.635   0.794   7.364  1.7450 -2.0030  0.9515
 2473WAT     H223419   0.736   0.866   7.449 -0.0472  0.7107  0.9226
 2474WAT      O23420   1.851   3.671   6.834  0.9447 -0.0022  0.2212
 2474WAT     H123421   1.778   3.717   6.876  0.0441 -0.1914 -1.0755
 2474WAT     H223422   1.872   3.600   6.894  0.1988  0.1755  0.7142
 2475WAT      O23423   0.969   1.799   7.563 -0.6673 -0.0701  0.0297
 2475WAT     H123424   1.045   1.851   7.591 -1.6613  1.6292 -0.2988
 2475WAT     H223425   0.975   1.718   7.614 -0.1195  1.1692  2.0202
 2476WAT      O23426   5.782   1.276   1.744  0.2926 -0.1675  0.4516
 2476WAT     H123427   5.853   1.318   1.791  0.5760 -0.8777  0.6730
 2476WAT     H223428   5.704   1.293   1.798  0.3703  0.2225  0.4421
 2477WAT      O23429   0.809   0.657   0.067 -0.2633  0.1517 -0.2129
 2477WAT     H123430   0.903   0.675   0.074 -0.5119  2.4723 -1.5548
 2477WAT     H223431   0.784   0.696  -0.017 -2.3207 -1.0021 -0.1819
 2478WAT      O23432   0.266   5.178   2.639  0.0083  0.2074 -0.0746
 2478WAT     H123433   0.187   5.145   2.597 -0.7899  0.3309  1.2594
 2478WAT     H223434   0.311   5.227   2.571 -0.8899 -0.1537 -0.9516
 2479WAT      O23435   3.983   3.685   1.395 -0.1758  0.4380 -0.2094
 2479WAT     H123436   3.939   3.601   1.382  0.8569 -0.5939  2.2484
 2479WAT     H223437   3.925   3.749   1.355 -1.7410 -1.2964 -0.8561
 2480WAT      O23438   0.190   5.055   6.991  0.1424  0.1270 -0.9444
 2480WAT     H123439   0.207   5.029   7.081  0.2476  0.7977 -0.7641
 2480WAT     H223440   0.270   5.031   6.943 -0.0823 -0.6322 -0.9573
 2481WAT      O23441   0.661   3.946   7.506  0.4670 -0.4859  0.7685
 2481WAT     H123442   0.601   3.935   7.581 -0.5843 -1.9388 -0.2182
 2481WAT     H223443   0.747   3.952   7.546 -0.1660 -0.0270  2.1603
 2482WAT      O23444   3.712   2.800   7.389 -0.3961  0.0136  0.4080
 2482WAT     H123445   3.772   2.855   7.339 -0.6741  0.0548  0.1157
 2482WAT     H223446   3.759   2.782   7.471 -0.1197  0.3122  0.3194
 2483WAT      O23447   1.821   6.211   0.622 -0.1063 -0.2747 -0.2019
 2483WAT     H123448   1.914   6.196   0.605 -0.0980  1.5678 -2.1758
 2483WAT     H223449   1.820   6.276   0.692  0.1309  0.2751 -0.7024
 2484WAT      O23450   2.073   2.954   6.928  0.0799  0.4242  0.0956
 2484WAT     H123451   2.168   2.951   6.923  0.1710  2.5456 -0.3654
 2484WAT     H223452   2.044   2.881   6.873  1.3986 -1.1287  1.3656
 2485WAT      O23453   1.139   1.997   0.390 -0.2078  0.2975  0.1087
 2485WAT     H123454   1.130   2.067   0.325  0.5172  1.7036  1.4478
 2485WAT     H223455   1.220   2.018   0.437 -1.3328  0.0693  2.2858
 2486WAT      O23456   2.048   5.421   6.393  0.0009 -0.0925 -0.1443
 2486WAT     H123457   2.047   5.468   6.476 -1.5580 -0.1667 -0.0907
 2486WAT     H223458   2.037   5.490   6.327 -0.7147 -0.2057 -0.1556
 2487WAT      O23459   5.783   0.369   5.865 -0.2715 -0.4131  0.4202
 2487WAT     H123460   5.790   0.359   5.770  2.9819  0.1851  0.4681
 2487WAT     H223461   5.808   0.284   5.900 -3.7735 -1.4039  0.8598
 2488WAT      O23462   0.397   1.295   6.660 -0.2108  0.1321  0.6962
 2488WAT     H123463   0.357   1.252   6.584 -1.0364  0.7706  0.7549
 2488WAT     H223464   0.394   1.388   6.638  0.5424  0.2419  1.0519
 2489WAT      O23465   2.286   0.766   6.828  0.3443 -0.1035  0.2176
 2489WAT     H123466   2.196   0.739   6.808 -0.2066  2.5250 -1.3705
 2489WAT     H223467   2.291   0.761   6.924 -1.7365  0.2637  0.3983
 2490WAT      O23468   0.307   5.357   0.788  0.0238  0.6407 -0.0736
 2490WAT     H123469   0.353   5.290   0.839  0.4665  1.1484  0.2089
 2490WAT     H223470   0.375   5.419   0.763 -0.2751  0.6545 -0.8788
 2491WAT      O23471   3.093   0.402   1.696 -0.0959  0.5508  0.2672
 2491WAT     H123472   3.001   0.405   1.671 -0.4912  0.1457  1.6029
 2491WAT     H223473   3.136   0.465   1.637 -1.1251  0.3593 -0.7136
 2492WAT      O23474   3.064   4.147   5.446  0.5336 -0.4220  0.2215
 2492WAT     H123475   3.124   4.180   5.380 -0.7068 -1.6568 -1.6291
 2492WAT     H223476   2.979   4.182   5.420  0.5164  2.8627  3.8163
 2493WAT      O23477   2.701   1.702   7.218  0.0562  0.5958  0.2607
 2493WAT     H123478   2.795   1.718   7.226  0.0100  0.6109  0.7998
 2493WAT     H223479   2.673   1.677   7.306 -0.1303 -1.1047 -0.2528
 2494WAT      O23480   3.420   3.575   1.364  0.3387 -0.1557  0.2686
 2494WAT     H123481   3.365   3.651   1.382 -2.1929 -1.3899 -1.5440
 2494WAT     H223482   3.375   3.502   1.408  1.1029 -1.0403 -0.3713
 2495WAT      O23483   2.622   2.971   7.190 -0.2752  0.6840  0.0758
 2495WAT     H123484   2.655   2.956   7.102  1.5985  1.1387  0.6621
 2495WAT     H223485   2.580   3.057   7.185  0.9741  1.3042 -0.0916
 2496WAT      O23486   2.617   6.092   0.145 -0.2291 -0.5369 -0.4302
 2496WAT     H123487   2.566   6.012   0.134 -1.9189  0.5164 -0.5895
 2496WAT     H223488   2.565   6.147   0.203  1.9423 -0.3743  1.5049
 2497WAT      O23489   2.825   1.298   0.919 -0.1475 -0.4122 -0.4297
 2497WAT     H123490   2.790   1.325   0.834  1.2334  0.6394 -0.6961
 2497WAT     H223491   2.797   1.368   0.979 -2.4745 -1.9164  0.3826
 2498WAT      O23492   2.440   0.009   7.539 -0.0249 -0.1350 -0.2095
 2498WAT     H123493   2.472   0.001   7.628 -0.8068  1.3528  0.2435
 2498WAT     H223494   2.348   0.031   7.548 -0.2249 -0.4103 -1.3950
 2499WAT      O23495   5.220   0.261   0.637 -0.5948  0.1523 -0.1768
 2499WAT     H123496   5.285   0.191   0.650  1.1816  1.4545 -1.5478
 2499WAT     H223497   5.273   0.340   0.622 -2.5197  1.9060  1.6662
 2500WAT      O23498   2.430   0.843   1.906  0.2792 -0.9434 -0.2256
 2500WAT     H123499   2.455   0.934   1.923  1.9453 -1.2632 -0.7190
 2500WAT     H223500   2.376   0.818   1.980  1.4557 -0.1401  0.9506
 2501WAT      O23501   3.598   0.093   0.328 -0.4221 -0.3920 -0.3162
 2501WAT     H123502   3.683   0.048   0.330 -0.0378  0.3287  0.7574
 2501WAT     H223503   3.602   0.154   0.402 -1.4006  0.5441 -1.0122
 2502WAT      O23504   5.218   2.504   7.073 -0.3986 -0.6349  0.1194
 2502WAT     H123505   5.294   2.550   7.110 -0.8051  0.5853 -0.4893
 2502WAT     H223506   5.160   2.575   7.044 -1.2470 -1.5547 -0.4745
 2503WAT      O23507   5.306   5.402   7.616 -0.4893  0.4368 -0.4508
 2503WAT     H123508   5.383   5.403   7.673  0.4610 -0.1787 -1.6788
 2503WAT     H223509   5.232   5.409   7.677  0.4927  0.1824  0.8356
 2504WAT      O23510   1.747   2.315   1.283  0.3546 -0.5465 -0.3763
 2504WAT     H123511   1.682   2.309   1.353 -0.3145 -1.4339 -1.0408
 2504WAT     H223512   1.799   2.235   1.292  0.4130 -0.5512 -0.7506
 2505WAT      O23513   1.187   2.244   6.870  0.0940 -0.1945 -0.2765
 2505WAT     H123514   1.257   2.191   6.831  0.8492  0.3342  0.3231
 2505WAT     H223515   1.210   2.334   6.846 -0.6548 -0.0526 -0.4776
 2506WAT      O23516   2.533   1.485   6.191  0.1256  0.1700 -0.0701
 2506WAT     H123517   2.596   1.473   6.120 -0.9909 -2.3528 -0.7165
 2506WAT     H223518   2.493   1.571   6.173  1.9251  0.9135 -0.7551
 2507WAT      O23519   0.647   4.577   5.992 -0.3576  0.0962  0.1187
 2507WAT     H123520   0.673   4.536   5.910 -0.2691  1.3028 -0.4800
 2507WAT     H223521   0.563   4.620   5.971  0.0282  1.0315  0.4335
 2508WAT      O23522   2.107   4.110   7.397 -0.5441 -0.2166 -0.4273
 2508WAT     H123523   2.111   4.148   7.484 -0.6022 -0.0798 -0.4843
 2508WAT     H223524   2.198   4.103   7.369 -0.5489  3.3985 -1.9442
 2509WAT      O23525   5.926   0.563   5.217 -0.0651  0.3272 -0.4193
 2509WAT     H123526   5.864   0.634   5.231  0.4690  0.4168  1.8670
 2509WAT     H223527   5.994   0.601   5.161 -0.7692  1.0167 -0.8155
 2510WAT      O23528   3.049   0.542   6.982 -0.8697 -0.2127  0.2878
 2510WAT     H123529   2.958   0.557   7.007 -0.9033 -0.0706  0.0779
 2510WAT     H223530   3.087   0.495   7.057 -1.0984 -0.2170  0.4007
 2511WAT      O23531   2.831   4.110   0.136 -0.3041 -0.2876  0.0957
 2511WAT     H123532   2.805   4.018   0.140  0.1441 -0.3663  2.8894
 2511WAT     H223533   2.754   4.155   0.101 -0.2866 -1.7482 -1.9921
 2512WAT      O23534   5.638   1.038   0.220  0.2338  0.3455  0.6057
 2512WAT     H123535   5.600   1.074   0.140  0.8226 -2.0107 -0.8405
 2512WAT     H223536   5.731   1.060   0.215  0.1148  0.9848  1.1200
 2513WAT      O23537   4.798   6.178   6.489  0.3079  0.1278 -0.4848
 2513WAT     H123538   4.731   6.162   6.555  0.7710  0.0453 -0.0247
 2513WAT     H223539   4.825   6.269   6.505  0.8258 -0.0731 -0.1761
 2514WAT      O23540   4.328   0.770   6.489  1.0854 -0.3563 -0.3612
 2514WAT     H123541   4.399   0.711   6.466  0.6469 -1.5699  1.2672
 2514WAT     H223542   4.270   0.719   6.545 -0.3567  1.0224 -0.5105
 2515WAT      O23543   0.872   0.269   0.226  0.2888  1.3383  0.5470
 2515WAT     H123544   0.891   0.230   0.312 -3.0296 -1.2184  0.3112
 2515WAT     H223545   0.813   0.342   0.246 -0.5193  0.7158  0.4877
 2516WAT      O23546   2.900   5.804   1.073  0.0835  0.4432 -0.2179
 2516WAT     H123547   2.950   5.871   1.027 -1.3696  0.8630 -1.2431
 2516WAT     H223548   2.826   5.851   1.112 -0.6992 -0.4678 -0.5537
 2517WAT      O23549   4.793   3.307   7.227  0.0971 -0.0387 -0.0460
 2517WAT     H123550   4.713   3.339   7.185  0.6390  0.3904 -0.7674
 2517WAT     H223551   4.773   3.216   7.249 -0.9237  0.3446  0.6581
 2518WAT      O23552   3.999   6.090   1.159  0.4321  0.2864  0.4402
 2518WAT     H123553   3.967   6.000   1.148  0.9381 -0.2294  2.6789
 2518WAT     H223554   4.091   6.086   1.132  0.4942  0.0954  0.6776
 2519WAT      O23555   5.901   0.864   5.954  0.0511 -0.3889  0.0292
 2519WAT     H123556   5.985   0.897   5.921  1.0383 -0.6481  2.0687
 2519WAT     H223557   5.905   0.769   5.938  0.3469 -0.4582  0.4856
 2520WAT      O23558   6.122   3.747   0.540  0.0921  0.7523 -0.1735
 2520WAT     H123559   6.154   3.657   0.546 -0.3786  0.5214 -0.9951
 2520WAT     H223560   6.066   3.757   0.617 -1.0166 -0.1479 -0.8289
 2521WAT      O23561   1.124   3.006   7.905 -0.4228  0.0387  0.0343
 2521WAT     H123562   1.134   3.015   8.000 -1.7346  1.6305  0.0531
 2521WAT     H223563   1.153   3.090   7.869  0.4964 -0.7044 -1.0431
 2522WAT      O23564   4.430   3.738   6.496  0.0129  0.0255  0.3058
 2522WAT     H123565   4.355   3.781   6.538 -0.3440 -0.0467 -0.2437
 2522WAT     H223566   4.439   3.782   6.412  0.7979  0.2484  0.4994
 2523WAT      O23567   1.619   4.564   0.805  0.2879  0.0749  0.2405
 2523WAT     H123568   1.640   4.604   0.721 -0.5932  0.2244  0.0766
 2523WAT     H223569   1.700   4.522   0.833 -0.0468 -2.2808 -1.9504
 2524WAT      O23570   3.409   5.111   1.094  0.9464 -0.5464  0.1078
 2524WAT     H123571   3.401   5.184   1.156 -0.5470  0.4048 -1.1274
 2524WAT     H223572   3.324   5.068   1.097  0.3224  0.3607 -2.2134
 2525WAT      O23573   3.917   2.087   0.044  0.0699 -0.6358  0.1009
 2525WAT     H123574   3.926   2.168   0.094 -0.2989 -0.6779  0.2350
 2525WAT     H223575   3.838   2.045   0.078  0.0967 -0.9125 -0.1650
 2526WAT      O23576   5.976   1.466   6.965 -0.1571  0.0339  0.1175
 2526WAT     H123577   5.931   1.384   6.945 -0.0020 -0.5249  1.9301
 2526WAT     H223578   6.060   1.458   6.919  0.9042 -1.9581  2.2011
 2527WAT      O23579   4.811   2.939   6.331  0.6011  0.3579 -0.3015
 2527WAT     H123580   4.773   2.895   6.407 -1.9583  0.7139 -1.2864
 2527WAT     H223581   4.799   2.878   6.258  0.2779  1.2109 -0.9852
 2528WAT      O23582   5.186   4.281   7.924  0.5199  0.3321 -0.2374
 2528WAT     H123583   5.203   4.375   7.923  0.2942  0.3746 -0.3113
 2528WAT     H223584   5.125   4.269   7.997 -1.2392  0.5801 -1.5834
 2529WAT      O23585   2.614   4.596   0.606  0.2167  1.1437 -0.0443
 2529WAT     H123586   2.522   4.601   0.579  0.1852  0.3077 -0.1025
 2529WAT     H223587   2.655   4.671   0.562 -0.0001  0.2969 -1.8006
 2530WAT      O23588   0.532   3.710   6.712  0.5982  0.4785 -0.6374
 2530WAT     H123589   0.537   3.788   6.767  3.1989  0.2750 -0.4305
 2530WAT     H223590   0.541   3.637   6.773 -1.1127 -0.0133 -0.9091
 2531WAT      O23591   5.583   4.065   7.430 -0.0542 -0.1450 -0.1956
 2531WAT     H123592   5.649   4.045   7.363  0.7502  1.7363 -0.0358
 2531WAT     H223593   5.633   4.066   7.512 -0.9034 -1.7429  0.3952
 2532WAT      O23594   0.983   3.243   6.832 -0.3427  0.2118  0.0224
 2532WAT     H123595   1.022   3.324   6.864 -0.1983 -0.2816  1.1670
 2532WAT     H223596   0.891   3.264   6.818 -0.3102  0.5628  0.3369
 2533WAT      O23597   1.881   4.558   6.425 -0.1891  0.1256 -0.1939
 2533WAT     H123598   1.935   4.563   6.346  1.8855 -0.7445  1.0804
 2533WAT     H223599   1.926   4.494   6.481 -1.0007  1.4211  2.0834
 2534WAT      O23600   4.140   4.760   7.589 -0.1735 -0.1002 -0.2986
 2534WAT     H123601   4.203   4.718   7.647 -0.2994 -0.1004 -0.1605
 2534WAT     H223602   4.159   4.854   7.598 -0.2978 -0.0892 -0.1311
 2535WAT      O23603   3.507   5.109   0.829 -0.2743 -0.0908 -0.1055
 2535WAT     H123604   3.536   5.018   0.830 -0.2621 -0.1173 -1.2390
 2535WAT     H223605   3.464   5.122   0.913  1.1255 -0.6764  0.7293
 2536WAT      O23606   5.223   1.062   6.901  0.5687 -0.0178 -0.7821
 2536WAT     H123607   5.260   0.975   6.883  0.5291 -0.3097  0.4831
 2536WAT     H223608   5.232   1.074   6.995 -0.7817  0.7308 -0.7129
 2537WAT      O23609   0.688   4.003   5.488 -0.1528  0.2962  0.2400
 2537WAT     H123610   0.639   4.068   5.438  0.0461 -0.1478 -0.5452
 2537WAT     H223611   0.624   3.968   5.551 -0.2160  1.3599  0.7868
 2538WAT      O23612   2.687   4.424   7.000 -0.0451 -0.3669  0.3382
 2538WAT     H123613   2.702   4.406   7.093  1.2315  1.8115  0.6152
 2538WAT     H223614   2.745   4.497   6.980 -0.3591 -0.7337 -2.1781
 2539WAT      O23615   5.194   0.824   7.118 -0.1770 -0.4296 -0.0003
 2539WAT     H123616   5.111   0.868   7.096  0.7934  1.3923 -0.2560
 2539WAT     H223617   5.249   0.894   7.153  1.3982 -1.5190 -0.1950
 2540WAT      O23618   2.742   1.798   6.455 -0.0384  0.2310 -0.1308
 2540WAT     H123619   2.746   1.711   6.495  0.6821  1.3541  2.4908
 2540WAT     H223620   2.705   1.854   6.524  0.2837  2.1494 -1.4345
 2541WAT      O23621   3.724   4.001   6.634 -0.8270  0.3126 -0.5292
 2541WAT     H123622   3.723   4.023   6.727 -1.7770  0.2905 -0.5167
 2541WAT     H223623   3.791   4.058   6.596 -0.6807  0.5745  0.1090
 2542WAT      O23624   6.141   5.346   2.122 -0.1357  0.2746  0.2622
 2542WAT     H123625   6.062   5.392   2.152  1.1955  1.1048  2.7427
 2542WAT     H223626   6.203   5.417   2.103  1.4490 -0.3732  2.6819
 2543WAT      O23627   3.216   0.405   7.190  0.6828  0.1822 -0.4934
 2543WAT     H123628   3.307   0.428   7.169  1.1071 -0.8500  0.1618
 2543WAT     H223629   3.222   0.346   7.265 -0.4884 -0.4215 -0.8471
 2544WAT      O23630   0.069   0.594   6.208 -0.1019  0.3897  0.0442
 2544WAT     H123631   0.143   0.562   6.156 -0.4959 -1.7449  0.7184
 2544WAT     H223632   0.078   0.689   6.206  0.2948  0.4005 -3.3361
 2545WAT      O23633   2.813   6.226   1.338 -0.5138  0.3246  0.4992
 2545WAT     H123634   2.851   6.264   1.259  0.4457  0.4002  0.9816
 2545WAT     H223635   2.739   6.283   1.359 -1.0683  0.0412 -0.5858
 2546WAT      O23636   0.925   0.530   5.950  0.4615 -0.4902  0.7014
 2546WAT     H123637   0.994   0.596   5.949  2.6065 -2.5562 -1.5084
 2546WAT     H223638   0.971   0.448   5.971 -1.3139 -1.9455 -0.7812
 2547WAT      O23639   3.231   5.369   6.812 -0.1603  0.6491  0.3076
 2547WAT     H123640   3.243   5.326   6.727 -2.3593  1.7445 -0.6505
 2547WAT     H223641   3.311   5.348   6.861  1.1291 -0.1273 -1.9607
 2548WAT      O23642   3.269   2.639   0.358 -0.0493  0.4589 -0.3193
 2548WAT     H123643   3.241   2.553   0.327 -0.7275  0.7389 -0.5164
 2548WAT     H223644   3.364   2.637   0.355 -0.0798 -0.0097 -1.0833
 2549WAT      O23645   0.258   4.514   0.441 -0.0058  0.0450  0.0093
 2549WAT     H123646   0.200   4.442   0.415  0.2091 -0.1672  0.1120
 2549WAT     H223647   0.206   4.565   0.503 -0.1754  0.0024 -0.0963
 2550WAT      O23648   3.677   5.450   1.124 -0.1871  0.2851  0.2095
 2550WAT     H123649   3.650   5.486   1.040 -0.6322 -1.2508 -0.3452
 2550WAT     H223650   3.740   5.381   1.102 -0.7276 -0.5182  1.0755
 2551WAT      O23651   0.735   2.503   7.603 -0.4365 -0.1086 -0.5717
 2551WAT     H123652   0.823   2.499   7.565  0.1548 -2.9733  0.7997
 2551WAT     H223653   0.681   2.543   7.534  1.7235  0.7516 -1.8583
 2552WAT      O23654   3.132   0.831   1.444 -0.6380 -0.4854 -0.1839
 2552WAT     H123655   3.195   0.901   1.461 -0.8748  0.1343 -1.7164
 2552WAT     H223656   3.047   0.874   1.445 -0.8193 -0.8140 -0.6873
 2553WAT      O23657   4.434   0.464   7.086  0.0351 -0.1976  0.0238
 2553WAT     H123658   4.398   0.552   7.080 -3.5674 -1.5501 -1.4398
 2553WAT     H223659   4.503   0.461   7.020  0.2559  1.5089  0.1512
 2554WAT      O23660   0.550   1.030   1.408  0.0540  0.7239  0.0573
 2554WAT     H123661   0.594   1.088   1.346  1.3318 -1.4156 -1.1332
 2554WAT     H223662   0.457   1.036   1.383 -0.0535  3.1001  0.7558
 2555WAT      O23663   2.730   5.308   7.325 -0.0435 -0.3949  0.1534
 2555WAT     H123664   2.732   5.235   7.263 -1.6276 -0.4275  0.1053
 2555WAT     H223665   2.653   5.359   7.299  0.5599  0.8333  0.7061
 2556WAT      O23666   4.442   1.499   7.370  0.1096 -0.2795  0.5107
 2556WAT     H123667   4.371   1.448   7.330  0.9806 -1.3308  0.2741
 2556WAT     H223668   4.474   1.444   7.441 -1.3620  1.5104  2.7258
 2557WAT      O23669   1.131   0.418   0.031 -0.2714 -0.7007  0.2529
 2557WAT     H123670   1.039   0.392   0.021 -0.6233  0.9148 -1.1520
 2557WAT     H223671   1.127   0.507   0.068  0.5922  0.4000 -2.1211
 2558WAT      O23672   2.318   0.142   6.893  0.1802  0.5673  0.6649
 2558WAT     H123673   2.230   0.164   6.924  0.0307  3.0598 -1.1269
 2558WAT     H223674   2.376   0.167   6.965 -0.3517  3.1220  0.3095
 2559WAT      O23675   4.714   3.041   6.867 -0.0132 -0.2165  0.0847
 2559WAT     H123676   4.670   3.122   6.892 -1.4406 -0.3667 -1.7031
 2559WAT     H223677   4.755   3.062   6.783  0.2234 -1.1227 -0.0351
 2560WAT      O23678   0.735   2.010   6.674 -0.7379 -0.4052  0.7669
 2560WAT     H123679   0.675   1.974   6.739 -2.4697  1.5604  0.3573
 2560WAT     H223680   0.786   2.076   6.721 -0.9162 -0.0625  0.4849
 2561WAT      O23681   6.197   2.609   1.266 -0.0471  0.5031  0.4058
 2561WAT     H123682   6.251   2.571   1.197 -1.6488 -1.2792  0.0194
 2561WAT     H223683   6.168   2.693   1.231 -0.4799 -0.1810 -0.9492
 2562WAT      O23684   0.119   3.539   0.111 -0.0789 -0.2660  0.0047
 2562WAT     H123685   0.116   3.634   0.105 -2.2828 -0.2347  0.5555
 2562WAT     H223686   0.127   3.510   0.020  2.5751  0.4071 -0.0395
 2563WAT      O23687   0.941   5.769   6.023  0.2224 -0.2834 -0.5102
 2563WAT     H123688   0.978   5.855   6.043 -1.0602  0.3459 -0.7283
 2563WAT     H223689   0.932   5.768   5.928 -0.7956 -0.2066 -0.4217
 2564WAT      O23690   0.128   4.679   1.982 -0.2163 -0.2624 -0.0528
 2564WAT     H123691   0.117   4.638   2.068  0.4708 -4.0386 -1.5411
 2564WAT     H223692   0.045   4.723   1.965 -0.7852 -0.4349  2.0272
 2565WAT      O23693   5.616   1.580   5.877  0.0310  0.4959 -0.3163
 2565WAT     H123694   5.625   1.506   5.938  1.5350  0.5106 -0.4770
 2565WAT     H223695   5.705   1.613   5.866  0.0153 -0.1436 -3.3257
 2566WAT      O23696   3.381   0.015   1.090 -0.1143 -0.4556 -0.6752
 2566WAT     H123697   3.313   0.051   1.034 -0.3265  1.2586  0.6065
 2566WAT     H223698   3.455   0.075   1.080  0.2722 -0.8075 -0.0417
 2567WAT      O23699   5.327   4.841   0.986  0.1330  0.1965  0.7368
 2567WAT     H123700   5.347   4.751   1.011  0.1253 -0.1268 -0.3877
 2567WAT     H223701   5.339   4.891   1.066  0.0144 -0.8222  1.4093
 2568WAT      O23702   2.786   1.493   1.115 -0.8910 -0.2868 -0.3637
 2568WAT     H123703   2.714   1.556   1.113 -0.1626  0.5949  0.1231
 2568WAT     H223704   2.796   1.471   1.208 -0.5467 -0.4105 -0.4267
 2569WAT      O23705   3.299   1.603   0.674  0.3366  0.1176 -0.0529
 2569WAT     H123706   3.309   1.571   0.763 -0.6256 -0.3366 -0.0987
 2569WAT     H223707   3.206   1.592   0.654  0.4196  0.7850 -0.8962
 2570WAT      O23708   1.900   3.826   0.292 -0.7938 -0.4149 -0.3462
 2570WAT     H123709   1.928   3.856   0.206  1.0677  0.4435  0.5060
 2570WAT     H223710   1.910   3.731   0.289  1.3883 -0.2253 -0.4047
 2571WAT      O23711   1.252   1.672   0.420 -0.6452 -0.0164 -0.1454
 2571WAT     H123712   1.316   1.605   0.447 -0.7812 -0.3993 -0.7700
 2571WAT     H223713   1.180   1.663   0.483  0.5048  1.3828  1.4870
 2572WAT      O23714   1.545   1.982   6.228 -0.0560  0.1826  0.3722
 2572WAT     H123715   1.499   1.972   6.145 -0.5967  1.0668  0.5499
 2572WAT     H223716   1.557   1.892   6.260 -1.1778 -0.0966  0.0537
 2573WAT      O23717   1.465   0.194   0.058 -0.2800 -0.4671 -0.3774
 2573WAT     H123718   1.540   0.211   0.115  0.9525  0.1777 -2.0660
 2573WAT     H223719   1.458   0.273   0.004 -3.0073  0.0134  0.5501
 2574WAT      O23720   5.454   1.653   7.269  0.3507  0.3641  0.2469
 2574WAT     H123721   5.432   1.688   7.183 -1.7893 -0.5760  0.3348
 2574WAT     H223722   5.433   1.723   7.330 -1.0075  0.0320  0.1952
 2575WAT      O23723   0.081   1.500   6.670  0.0386  0.0858 -0.5799
 2575WAT     H123724   0.174   1.517   6.689  0.2564 -1.3943 -0.2228
 2575WAT     H223725   0.051   1.580   6.628  0.9836  1.3296  1.0084
 2576WAT      O23726   1.935   0.841   0.306 -0.2343 -0.3798 -0.0927
 2576WAT     H123727   1.879   0.912   0.274 -0.0382 -0.9768 -1.8627
 2576WAT     H223728   1.897   0.762   0.268  0.7727 -0.9953  0.1581
 2577WAT      O23729   1.297   5.620   0.467  0.3795  0.0870  0.2114
 2577WAT     H123730   1.272   5.668   0.546  0.3395  1.2770 -0.5107
 2577WAT     H223731   1.264   5.531   0.482  2.0345 -0.2502  2.3528
 2578WAT      O23732   1.369   4.212   1.381 -0.1702  0.2387 -0.5044
 2578WAT     H123733   1.390   4.305   1.384 -2.7665  0.8937  0.8973
 2578WAT     H223734   1.420   4.173   1.452  1.9368  0.2589 -1.9141
 2579WAT      O23735   2.808   0.479   5.839  0.8575 -0.3573  0.3308
 2579WAT     H123736   2.773   0.417   5.903  0.9630  0.3362  1.0706
 2579WAT     H223737   2.752   0.467   5.762  0.4350 -0.8797  0.7089
 2580WAT      O23738   5.041   5.379   0.167 -0.2496  0.0840 -0.3442
 2580WAT     H123739   4.971   5.313   0.162 -0.6161  0.3016  1.2429
 2580WAT     H223740   4.995   5.463   0.168 -0.0707  0.2074  1.4748
 2581WAT      O23741   5.044   5.992   1.921 -0.1260 -0.5343 -0.1730
 2581WAT     H123742   5.134   5.989   1.889  1.0524 -0.0874  2.7833
 2581WAT     H223743   5.052   5.988   2.017 -3.1154  1.5428  0.3081
 2582WAT      O23744   5.076   0.378   0.422 -0.1056 -0.0651 -0.1054
 2582WAT     H123745   4.988   0.343   0.410  0.8352 -1.7938 -2.7531
 2582WAT     H223746   5.111   0.329   0.496 -0.9386 -0.2116  0.2028
 2583WAT      O23747   1.617   1.454   1.323  0.4048 -0.1012 -0.5672
 2583WAT     H123748   1.682   1.509   1.366  0.0255  0.5914 -0.8609
 2583WAT     H223749   1.612   1.375   1.378  0.5290  0.4119  0.1989
 2584WAT      O23750   0.389   0.677   7.144 -0.0465  0.3562 -0.1171
 2584WAT     H123751   0.306   0.639   7.115  0.0067 -0.1689  0.3909
 2584WAT     H223752   0.363   0.751   7.199 -0.2989 -1.3025  2.1607
 2585WAT      O23753   2.566   2.668   5.266  0.4225 -0.3729 -0.5551
 2585WAT     H123754   2.629   2.735   5.291  0.1681 -0.3427  0.0104
 2585WAT     H223755   2.492   2.717   5.231  0.3117 -0.3690 -0.3128
 2586WAT      O23756   5.242   3.308   0.207 -0.6619  0.3639  0.4236
 2586WAT     H123757   5.168   3.306   0.147  0.1993  3.3752 -0.9614
 2586WAT     H223758   5.258   3.216   0.229 -3.2460 -0.5643 -1.1062
 2587WAT      O23759   4.515   0.844   0.362  0.9275  0.2960  0.5903
 2587WAT     H123760   4.547   0.755   0.373 -0.0939 -0.2449 -0.5927
 2587WAT     H223761   4.525   0.862   0.268 -4.4583 -0.8897 -0.5001
 2588WAT      O23762   5.509   1.986   7.720 -0.2399  0.5084  0.0323
 2588WAT     H123763   5.416   2.009   7.725 -0.1927  0.6414  0.3675
 2588WAT     H223764   5.552   2.069   7.698 -0.2794  0.2669 -0.9927
 2589WAT      O23765   2.639   1.407   6.953 -0.4135  0.1230 -0.0872
 2589WAT     H123766   2.704   1.355   6.906 -0.1839  0.6270 -0.3348
 2589WAT     H223767   2.668   1.404   7.044 -0.4066 -0.1855 -0.0969
 2590WAT      O23768   4.269   5.636   1.177  1.0123 -0.0746  0.9202
 2590WAT     H123769   4.183   5.677   1.191  0.2252 -1.9345  1.8962
 2590WAT     H223770   4.309   5.688   1.108 -1.9572 -0.6577 -1.4601
 2591WAT      O23771   5.862   2.784   1.006 -0.0854  0.6566 -0.3306
 2591WAT     H123772   5.789   2.748   1.057  1.0614 -1.8962 -0.3303
 2591WAT     H223773   5.825   2.801   0.919 -0.7767 -0.3077 -0.2376
 2592WAT      O23774   4.883   5.916   0.129 -0.3374 -0.2721 -0.3319
 2592WAT     H123775   4.811   5.969   0.094 -1.0307 -1.6813 -1.1210
 2592WAT     H223776   4.960   5.946   0.081 -0.1926  1.6932  0.9533
 2593WAT      O23777   6.196   3.247   7.397  0.5812 -0.8548  0.0724
 2593WAT     H123778   6.226   3.186   7.329 -0.6092  1.6096 -2.9242
 2593WAT     H223779   6.273   3.300   7.417  0.1511  0.7187 -2.1381
 2594WAT      O23780   5.587   4.523   0.821 -0.0233 -0.2018  0.3683
 2594WAT     H123781   5.534   4.523   0.900 -0.5204  0.1918  0.0408
 2594WAT     H223782   5.568   4.440   0.778  0.2448 -0.4142  0.6571
 2595WAT      O23783   3.784   5.465   1.617 -0.2994  0.3052  0.3120
 2595WAT     H123784   3.747   5.480   1.530  1.7538 -0.4283 -0.7679
 2595WAT     H223785   3.752   5.378   1.643  0.6902 -0.3900 -0.6766
 2596WAT      O23786   5.541   3.278   1.509 -0.0270 -0.2310  0.2766
 2596WAT     H123787   5.593   3.199   1.496  1.2696  0.8597 -1.7671
 2596WAT     H223788   5.451   3.252   1.489  0.5918 -0.8939 -1.8886
 2597WAT      O23789   0.100   3.484   7.793  0.0175 -0.4089  0.5679
 2597WAT     H123790   0.033   3.439   7.741 -0.4011  0.3757  0.4154
 2597WAT     H223791   0.134   3.552   7.735  1.5000 -1.2674  0.3822
 2598WAT      O23792   1.495   4.213   1.958 -0.0067 -0.7509 -0.0331
 2598WAT     H123793   1.457   4.193   1.873 -0.0309  0.7864 -0.4136
 2598WAT     H223794   1.536   4.299   1.947 -1.1741  0.1223  1.8331
 2599WAT      O23795   3.198   6.074   2.405 -0.0548 -0.1765 -0.2501
 2599WAT     H123796   3.147   6.155   2.395 -1.3620 -0.9027  0.2887
 2599WAT     H223797   3.169   6.019   2.332  0.5327 -0.3141 -0.3811
 2600WAT      O23798   1.277   4.644   0.247 -0.0421 -0.2973  0.2311
 2600WAT     H123799   1.197   4.608   0.209 -0.6951  0.3193  0.9777
 2600WAT     H223800   1.333   4.663   0.171 -1.2373  0.7467 -0.4442
 2601WAT      O23801   1.165   6.199   0.130  0.7388 -0.4902  0.5542
 2601WAT     H123802   1.185   6.144   0.205  1.1062 -0.8014  0.2320
 2601WAT     H223803   1.171   6.289   0.163 -1.1012 -0.6411  1.4003
 2602WAT      O23804   1.867   5.454   6.866  0.4396 -0.2290 -0.0333
 2602WAT     H123805   1.929   5.387   6.835  0.8983 -0.0774  0.5396
 2602WAT     H223806   1.796   5.453   6.801  1.2118 -0.1570 -0.9070
 2603WAT      O23807   1.184   0.342   6.172 -0.0360 -0.3186 -0.3253
 2603WAT     H123808   1.113   0.311   6.115 -0.1476 -0.1333 -0.2902
 2603WAT     H223809   1.202   0.430   6.141  1.5077 -1.0359 -1.5909
 2604WAT      O23810   1.708   2.713   7.824  0.0040  0.1719  0.5492
 2604WAT     H123811   1.655   2.663   7.886 -0.5971  0.3065  0.1523
 2604WAT     H223812   1.647   2.774   7.784  0.7673  1.3966  1.1760
 2605WAT      O23813   3.972   5.250   6.707  0.0267 -0.0808  0.2127
 2605WAT     H123814   4.052   5.301   6.712 -1.1098  1.8036  0.1842
 2605WAT     H223815   3.921   5.293   6.637 -0.4784 -2.0119 -0.6615
 2606WAT      O23816   1.851   1.085   1.822  0.6037 -0.0312 -0.2206
 2606WAT     H123817   1.910   1.010   1.829 -0.5863 -1.0374 -0.6358
 2606WAT     H223818   1.832   1.108   1.913  0.3264 -0.7673 -0.0846
 2607WAT      O23819   2.598   3.167   0.586 -0.6064 -0.5646  0.1194
 2607WAT     H123820   2.655   3.122   0.649  1.2117  0.0611 -0.9954
 2607WAT     H223821   2.511   3.159   0.624  0.3575 -0.4005  2.5965
 2608WAT      O23822   3.916   4.501   6.413 -0.1306 -0.2412 -0.1160
 2608WAT     H123823   3.967   4.574   6.380  1.9343 -2.4204 -2.1109
 2608WAT     H223824   3.850   4.485   6.345 -2.0660  1.0259  1.3348
 2609WAT      O23825   5.388   4.197   5.345 -0.8844 -0.5358 -0.2363
 2609WAT     H123826   5.375   4.158   5.432  3.9429 -0.8946  0.5840
 2609WAT     H223827   5.385   4.292   5.361  1.6782 -0.5586  0.8185
 2610WAT      O23828   4.692   4.618   1.329 -0.2994  0.2775 -0.0798
 2610WAT     H123829   4.692   4.708   1.363 -1.6680  0.4158 -0.3832
 2610WAT     H223830   4.716   4.628   1.237  0.4891  0.2161  0.1093
 2611WAT      O23831   4.828   6.119   1.293  0.3275  0.4317  0.6306
 2611WAT     H123832   4.917   6.133   1.326  0.2469 -0.0209  1.0658
 2611WAT     H223833   4.778   6.094   1.371  0.1640 -0.8453  0.1398
 2612WAT      O23834   0.641   4.437   1.836 -1.0309 -0.2720 -0.6675
 2612WAT     H123835   0.681   4.357   1.870  1.2532  1.5951  1.3928
 2612WAT     H223836   0.680   4.448   1.750  0.1618 -0.3816 -0.1590
 2613WAT      O23837   1.222   3.606   6.396  0.7121 -0.4176  0.3380
 2613WAT     H123838   1.158   3.543   6.364 -0.5855 -0.1207  2.1768
 2613WAT     H223839   1.194   3.690   6.359  0.6729 -0.4521  0.2897
 2614WAT      O23840   2.772   0.992   6.775  0.2776 -0.4529 -0.0993
 2614WAT     H123841   2.811   1.018   6.859 -0.5060 -2.0410  0.7975
 2614WAT     H223842   2.835   1.022   6.709  1.4574 -0.1605  1.1092
 2615WAT      O23843   1.138   0.346   1.115 -0.6234 -0.0733  0.1837
 2615WAT     H123844   1.212   0.407   1.114 -0.6732 -0.0164 -0.3550
 2615WAT     H223845   1.178   0.260   1.126 -0.6307  0.1441  2.2845
 2616WAT      O23846   5.390   6.118   1.072 -0.0152  0.0619  0.3918
 2616WAT     H123847   5.466   6.154   1.028 -0.9076  0.6770 -0.7082
 2616WAT     H223848   5.425   6.048   1.127  1.5927  1.6752  1.5163
 2617WAT      O23849   3.737   0.470   1.100 -0.1400 -0.6958  0.1821
 2617WAT     H123850   3.713   0.378   1.089 -0.5385 -0.6570  0.6978
 2617WAT     H223851   3.800   0.470   1.172 -0.2134 -0.5517  0.2459
 2618WAT      O23852   2.910   4.134   0.471 -0.2169  0.1189  0.2431
 2618WAT     H123853   2.963   4.187   0.411 -0.3879  1.0334  0.8699
 2618WAT     H223854   2.906   4.048   0.431  1.3965  0.1515 -0.0336
 2619WAT      O23855   1.187   5.289   7.026 -0.3899 -0.4547  0.2788
 2619WAT     H123856   1.228   5.370   6.996  0.6983 -1.0896  0.0056
 2619WAT     H223857   1.141   5.314   7.106  0.9338  0.2161  0.8765
 2620WAT      O23858   5.237   3.373   6.055 -0.0057 -0.7928 -0.2650
 2620WAT     H123859   5.235   3.467   6.075 -3.5477 -0.4233 -1.7578
 2620WAT     H223860   5.300   3.366   5.983 -0.4934  0.6323 -0.8761
 2621WAT      O23861   1.644   1.327   6.011  0.4606  0.1315 -0.1444
 2621WAT     H123862   1.694   1.259   5.967  0.7744  0.2483  0.0320
 2621WAT     H223863   1.639   1.398   5.947  0.7438  0.2224 -0.0684
 2622WAT      O23864   2.570   3.621   1.243 -0.2545 -0.0076  0.4320
 2622WAT     H123865   2.529   3.608   1.158  0.6902  0.6037 -0.1488
 2622WAT     H223866   2.502   3.660   1.298 -0.3693  1.3571 -0.6239
 2623WAT      O23867   5.641   4.396   7.060 -0.0236  0.3207 -0.4995
 2623WAT     H123868   5.551   4.370   7.039 -0.2050  0.9059 -0.4702
 2623WAT     H223869   5.635   4.436   7.147  0.3255  0.0238 -0.3390
 2624WAT      O23870   2.480   6.211   0.346 -0.6044 -0.0105  0.4477
 2624WAT     H123871   2.537   6.193   0.421  0.5457 -0.4590 -0.5133
 2624WAT     H223872   2.418   6.138   0.346 -2.1882  1.2236  2.3659
 2625WAT      O23873   3.593   5.833   1.309 -0.4393 -0.1377  0.2642
 2625WAT     H123874   3.541   5.781   1.370 -1.2552 -0.4485 -0.6649
 2625WAT     H223875   3.589   5.922   1.344  0.2029 -0.5301  1.3669
 2626WAT      O23876   0.878   2.568   2.378 -0.5225  0.0750  0.4192
 2626WAT     H123877   0.884   2.508   2.304  0.1282 -0.7200  1.1021
 2626WAT     H223878   0.938   2.533   2.443  0.6067  1.9877  0.4911
 2627WAT      O23879   3.034   4.179   6.068 -0.1554 -0.8957  0.0587
 2627WAT     H123880   3.116   4.210   6.030 -1.4336  2.8645 -0.1025
 2627WAT     H223881   2.983   4.148   5.993 -0.1084  0.0159 -0.3696
 2628WAT      O23882   6.120   0.109   6.759  0.6955 -0.1218 -0.0158
 2628WAT     H123883   6.186   0.134   6.695  0.9242 -0.5483  0.0478
 2628WAT     H223884   6.045   0.081   6.706  2.3795 -4.9009 -0.3853
 2629WAT      O23885   1.616   1.687   1.828  0.0238 -0.1111  0.3295
 2629WAT     H123886   1.566   1.678   1.909 -0.1002 -0.2883  0.2360
 2629WAT     H223887   1.681   1.754   1.847 -0.3539  0.2403  0.4012
 2630WAT      O23888   3.777   3.945   6.988  0.0905 -0.0076  0.3271
 2630WAT     H123889   3.855   3.891   7.000  1.0296  1.1114 -0.4571
 2630WAT     H223890   3.727   3.933   7.068  1.2749 -0.4360  1.0225
 2631WAT      O23891   5.608   2.202   1.150  0.4388  0.0512  0.3876
 2631WAT     H123892   5.649   2.259   1.086  0.1528  0.3144  0.4357
 2631WAT     H223893   5.566   2.261   1.212  1.4525 -0.1745  1.3257
 2632WAT      O23894   2.012   0.585   1.065  0.1057 -0.2543 -0.3358
 2632WAT     H123895   1.987   0.671   1.099  1.7975  0.1162  0.0858
 2632WAT     H223896   1.950   0.524   1.106 -0.0192  0.5712  0.7511
 2633WAT      O23897   0.584   2.211   7.522 -0.1777  0.0376  0.1914
 2633WAT     H123898   0.531   2.149   7.472  0.0934  0.0281 -0.0929
 2633WAT     H223899   0.666   2.218   7.472 -0.0166  0.2527  0.4804
 2634WAT      O23900   4.651   0.876   7.081 -0.7421 -0.0480 -0.1670
 2634WAT     H123901   4.576   0.819   7.099 -1.7559  1.1142 -0.5759
 2634WAT     H223902   4.636   0.910   6.993  0.3029  0.1740 -0.2802
 2635WAT      O23903   5.428   3.294   1.856 -0.3191 -0.7234 -0.4261
 2635WAT     H123904   5.510   3.254   1.884 -0.1618 -0.7032 -0.8508
 2635WAT     H223905   5.361   3.234   1.887 -0.3353  0.4775  2.1345
 2636WAT      O23906   3.709   2.200   5.817  0.4165 -0.1731 -0.4763
 2636WAT     H123907   3.641   2.135   5.795  0.2760 -0.0872 -0.3000
 2636WAT     H223908   3.698   2.215   5.911 -1.5821  2.3782 -0.9928
 2637WAT      O23909   5.498   5.661   1.759 -0.3344  0.0666 -0.5942
 2637WAT     H123910   5.587   5.678   1.729 -0.3439 -0.9229 -1.2356
 2637WAT     H223911   5.463   5.597   1.697 -1.8479  1.1556 -0.9511
 2638WAT      O23912   5.583   0.052   0.904  0.5554  0.2480 -0.1246
 2638WAT     H123913   5.652  -0.001   0.865  0.5328 -0.1928  0.4310
 2638WAT     H223914   5.626   0.136   0.924  0.7358  0.2408 -0.4676
 2639WAT      O23915   2.347   4.035   7.283  0.2177 -0.2495  0.6559
 2639WAT     H123916   2.351   3.941   7.268 -0.3908 -0.0565 -0.9353
 2639WAT     H223917   2.438   4.061   7.300  0.8454 -0.7563 -1.5584
 2640WAT      O23918   5.644   5.761   6.692 -0.5350  0.1875 -0.3977
 2640WAT     H123919   5.707   5.690   6.707 -1.2965 -0.6386 -0.9880
 2640WAT     H223920   5.664   5.793   6.604  1.1965  2.1927  0.6429
 2641WAT      O23921   0.144   6.049   6.698  0.1404 -0.6341  0.1564
 2641WAT     H123922   0.236   6.058   6.724  0.2026 -1.1753  0.1348
 2641WAT     H223923   0.144   5.978   6.634 -0.2926 -0.6370  0.1593
 2642WAT      O23924   0.481   2.026   7.848 -0.0384  0.3503  0.4100
 2642WAT     H123925   0.397   2.045   7.890 -0.1352 -0.7060  0.7215
 2642WAT     H223926   0.545   2.033   7.920 -0.1194 -0.7702  0.6189
 2643WAT      O23927   2.094   5.209   6.165  0.3251  0.2501  0.1915
 2643WAT     H123928   2.076   5.295   6.203  2.0777  0.8247 -0.1527
 2643WAT     H223929   2.190   5.204   6.161  0.3241 -2.2651  1.3914
 2644WAT      O23930   1.675   5.775   7.764 -0.2120  0.3115  0.7297
 2644WAT     H123931   1.706   5.835   7.697 -0.6189 -0.3492 -0.0819
 2644WAT     H223932   1.579   5.782   7.760 -0.3823 -1.8793 -0.8669
 2645WAT      O23933   2.127   1.520   6.220  0.1247 -0.1300  0.2133
 2645WAT     H123934   2.135   1.475   6.135 -0.9330 -0.4304  0.2680
 2645WAT     H223935   2.196   1.481   6.273 -0.4312 -1.3374  0.0910
 2646WAT      O23936   2.268   5.345   0.012 -0.3886  0.3397  0.0049
 2646WAT     H123937   2.353   5.381  -0.012 -0.4422  0.7247  0.3747
 2646WAT     H223938   2.255   5.272  -0.048  0.4020 -0.0089  0.2435
 2647WAT      O23939   3.261   2.415   1.525 -0.0060  0.2433  0.1863
 2647WAT     H123940   3.295   2.498   1.560 -0.8294  0.9660 -0.6789
 2647WAT     H223941   3.306   2.348   1.576  1.6548  1.1851  0.0555
 2648WAT      O23942   1.583   3.838   6.797  0.1369  0.9762 -0.0540
 2648WAT     H123943   1.526   3.914   6.792 -0.5964  0.4942  0.7702
 2648WAT     H223944   1.569   3.803   6.885 -1.2676 -1.4531 -1.1620
 2649WAT      O23945   2.016   1.786   6.130  0.0411  0.3899 -0.2278
 2649WAT     H123946   2.110   1.801   6.122  0.1704  0.5595  1.2230
 2649WAT     H223947   2.009   1.701   6.173 -0.5597 -0.8366 -2.5870
 2650WAT      O23948   1.331   1.921   7.184 -0.5520 -0.0317  0.0471
 2650WAT     H123949   1.417   1.894   7.154 -0.7431 -1.1328  0.4459
 2650WAT     H223950   1.293   1.843   7.224 -2.0265  0.2244 -0.7478
 2651WAT      O23951   0.678   1.229   1.017 -0.1423 -0.9072 -0.2577
 2651WAT     H123952   0.655   1.282   0.941 -0.5200  0.5395  0.8328
 2651WAT     H223953   0.756   1.180   0.989 -0.6274 -0.8723 -1.7614
 2652WAT      O23954   0.484   0.344   1.839 -0.1869  0.0508 -0.6205
 2652WAT     H123955   0.539   0.417   1.809 -1.1921  0.6630 -1.0096
 2652WAT     H223956   0.516   0.325   1.927 -0.8238  1.9077  0.0488
 2653WAT      O23957   2.636   6.213   0.576 -0.1516  0.1296  0.1580
 2653WAT     H123958   2.608   6.295   0.615  0.0050 -0.5987  1.9104
 2653WAT     H223959   2.724   6.231   0.543  0.8858  0.0989  2.6877
 2654WAT      O23960   4.158   4.342   7.047 -0.4438 -0.4388  0.0592
 2654WAT     H123961   4.235   4.384   7.008 -1.0091  0.5375 -0.0315
 2654WAT     H223962   4.188   4.314   7.134  0.0543 -0.1980 -0.0290
 2655WAT      O23963   0.733   4.174   1.886  0.0895  0.8524  0.1625
 2655WAT     H123964   0.718   4.153   1.979  0.4649  2.1690  0.5375
 2655WAT     H223965   0.824   4.151   1.871  0.5963  2.4301  0.6608
 2656WAT      O23966   6.022   4.400   7.384  0.0663  0.0803  0.3055
 2656WAT     H123967   5.982   4.484   7.360  0.6264  0.0509 -0.7787
 2656WAT     H223968   5.952   4.336   7.372 -0.9655  0.5554  2.9516
 2657WAT      O23969   0.482   3.567   7.217 -0.6116 -0.2861  0.3978
 2657WAT     H123970   0.521   3.630   7.278  0.5055 -0.6018  0.0268
 2657WAT     H223971   0.426   3.621   7.160  2.2770  0.9111 -1.6022
 2658WAT      O23972   3.029   5.186   7.598 -0.3559  0.7986  0.0625
 2658WAT     H123973   3.031   5.091   7.611  0.2915  0.6299 -1.0903
 2658WAT     H223974   3.048   5.198   7.505 -1.8126  2.0100 -0.1151
 2659WAT      O23975   2.818   1.094   7.148  0.0703 -0.6313 -0.1352
 2659WAT     H123976   2.867   1.016   7.174 -1.5066 -1.4427  0.5679
 2659WAT     H223977   2.837   1.159   7.216  1.2409 -0.4438 -0.6221
 2660WAT      O23978   0.613   3.000   0.166  0.9027  0.4374  0.1394
 2660WAT     H123979   0.611   3.059   0.242 -0.5770 -0.3745  0.7829
 2660WAT     H223980   0.626   2.913   0.204 -0.9987 -0.1197 -0.3978
 2661WAT      O23981   1.104   5.525   0.103 -0.4523  0.5281  0.2085
 2661WAT     H123982   1.082   5.439   0.067 -0.2925 -0.0251  1.3630
 2661WAT     H223983   1.183   5.552   0.056 -1.6329  0.9783 -1.5742
 2662WAT      O23984   3.185   0.324   1.338 -0.0368 -0.1359 -0.3180
 2662WAT     H123985   3.194   0.269   1.416 -1.4112 -0.4038 -0.3144
 2662WAT     H223986   3.207   0.412   1.368  0.4055 -0.3944  0.1255
 2663WAT      O23987   1.666   2.075   6.626 -0.9857  0.1378 -0.4181
 2663WAT     H123988   1.632   2.123   6.550  0.6475 -0.8495 -1.8675
 2663WAT     H223989   1.720   2.139   6.672 -2.4313  0.9028  0.2838
 2664WAT      O23990   0.926   2.016   2.092 -0.7874  0.6476 -0.2974
 2664WAT     H123991   0.859   2.029   2.024 -0.5016  1.6385 -0.4105
 2664WAT     H223992   0.989   2.086   2.077 -0.7689  0.9491  1.0595
 2665WAT      O23993   1.323   0.036   6.739 -0.4993 -0.0637 -0.1214
 2665WAT     H123994   1.292   0.024   6.649 -0.1804  1.9434 -0.5564
 2665WAT     H223995   1.253   0.001   6.793 -0.8654 -0.9751 -1.1267
 2666WAT      O23996   1.507   1.927   1.037 -0.1148  0.8919 -0.0126
 2666WAT     H123997   1.586   1.896   1.081  0.1146  1.9562  0.3380
 2666WAT     H223998   1.523   2.019   1.020 -0.5500  0.7050 -1.5856
 2667WAT      O23999   0.744   3.695   0.736  0.2895 -0.1470  0.2807
 2667WAT     H124000   0.707   3.743   0.810 -0.6079  1.1669 -0.9663
 2667WAT     H224001   0.692   3.615   0.731 -1.2848  0.8672 -0.3740
 2668WAT      O24002   4.223   0.925   0.598  0.3819  0.0253  0.9148
 2668WAT     H124003   4.308   0.883   0.586  0.1424 -0.2101 -0.0374
 2668WAT     H224004   4.174   0.864   0.653  0.2069 -0.7318 -0.0532
 2669WAT      O24005   2.685   3.333   7.934  0.5979  0.0624 -0.5686
 2669WAT     H124006   2.611   3.347   7.993  0.1962 -0.8387 -0.8459
 2669WAT     H224007   2.751   3.291   7.988  0.9756  0.9705 -0.2907
 2670WAT      O24008   6.108   4.576   0.840 -0.0715 -0.5610 -0.2153
 2670WAT     H124009   6.017   4.550   0.848  0.2913 -1.5767  0.9010
 2670WAT     H224010   6.131   4.612   0.925  0.5177 -0.1164 -0.5533
 2671WAT      O24011   0.162   0.910   7.730  0.0874 -0.2896  0.0549
 2671WAT     H124012   0.252   0.943   7.739 -0.0595  0.4151 -0.9168
 2671WAT     H224013   0.107   0.987   7.747 -0.2911 -0.2961 -1.0905
 2672WAT      O24014   0.773   5.211   0.362 -0.0507  0.0956 -0.3523
 2672WAT     H124015   0.864   5.238   0.354  0.0361 -0.3178 -0.8329
 2672WAT     H224016   0.738   5.215   0.273 -0.8675  1.4620 -0.0066
 2673WAT      O24017   2.151   4.749   6.219 -0.4827 -0.4253  0.8298
 2673WAT     H124018   2.168   4.722   6.129 -0.0156 -1.7264  1.2953
 2673WAT     H224019   2.203   4.829   6.231 -1.7824  0.6791 -0.5199
 2674WAT      O24020   4.528   3.445   0.199 -0.4882  0.4785  0.3659
 2674WAT     H124021   4.549   3.404   0.115 -0.0819  2.5940 -0.6263
 2674WAT     H224022   4.444   3.489   0.184  0.0841  1.7351  0.7091
 2675WAT      O24023   1.097   4.026   5.563 -0.1389  0.5790  0.3266
 2675WAT     H124024   1.149   3.950   5.589  1.7847  1.0444 -1.8416
 2675WAT     H224025   1.156   4.100   5.571 -0.7473  1.2906 -1.2059
 2676WAT      O24026   2.230   4.105   0.338  0.3255  0.3278  0.4305
 2676WAT     H124027   2.303   4.077   0.283  1.2093  3.2377 -0.0663
 2676WAT     H224028   2.167   4.142   0.276 -2.9898 -4.3481  0.5085
 2677WAT      O24029   5.258   2.877   0.626 -0.3362 -0.2959  0.6385
 2677WAT     H124030   5.269   2.936   0.700  1.5419  0.6405 -0.3232
 2677WAT     H224031   5.190   2.919   0.573 -1.2378 -0.6508  1.4772
 2678WAT      O24032   2.497   3.844   0.211 -0.0240 -0.3252 -0.2813
 2678WAT     H124033   2.514   3.857   0.305 -0.5355 -1.1186 -0.0763
 2678WAT     H224034   2.456   3.926   0.183  0.5774  0.1074  0.0717
 2679WAT      O24035   3.531   2.887   6.031  0.5455 -0.1208 -0.9219
 2679WAT     H124036   3.445   2.891   6.074  1.2801 -1.3626  0.7851
 2679WAT     H224037   3.511   2.891   5.938 -1.4051 -0.8904 -0.5969
 2680WAT      O24038   1.049   6.175   7.838  0.3912  0.3337 -0.1684
 2680WAT     H124039   1.025   6.268   7.831  0.1026  0.1698 -1.7025
 2680WAT     H224040   1.091   6.168   7.924  0.1799  1.8245  0.0949
 2681WAT      O24041   1.986   3.575   0.287  0.5902 -0.2692  0.0961
 2681WAT     H124042   1.991   3.511   0.358  0.3804  0.5493  0.8589
 2681WAT     H224043   1.937   3.530   0.218 -1.3564 -0.2606  1.3876
 2682WAT      O24044   2.026   1.627   6.827  0.3453  0.4150 -0.0214
 2682WAT     H124045   2.092   1.588   6.770 -0.7624  0.6506 -1.5341
 2682WAT     H224046   2.060   1.714   6.848  0.0096  1.0299 -1.8089
 2683WAT      O24047   3.294   2.019   7.937  0.5698  0.0637  0.5125
 2683WAT     H124048   3.264   1.928   7.935 -0.4193  0.4027 -0.4796
 2683WAT     H224049   3.226   2.068   7.893  1.7441  1.1090 -0.1985
 2684WAT      O24050   0.541   3.734   0.032 -0.0439 -1.0641 -0.0172
 2684WAT     H124051   0.577   3.804  -0.021  1.1328 -1.0300  0.7793
 2684WAT     H224052   0.602   3.661   0.020  0.8042 -0.7623  1.9566
 2685WAT      O24053   0.752   2.942   7.271 -0.0697 -0.0571 -0.0923
 2685WAT     H124054   0.826   2.885   7.293 -2.0935 -2.1429  1.7868
 2685WAT     H224055   0.687   2.926   7.340 -2.0151  2.2485 -1.2270
 2686WAT      O24056   2.415   5.012   2.302 -0.5596  0.0161 -0.1768
 2686WAT     H124057   2.475   4.944   2.270  0.5058  1.3691 -1.1776
 2686WAT     H224058   2.450   5.037   2.388 -0.3324  0.0211 -0.2695
 2687WAT      O24059   5.739   5.146   7.690 -0.1887  0.2116  0.8748
 2687WAT     H124060   5.753   5.102   7.607 -0.7781  2.0973 -0.2795
 2687WAT     H224061   5.794   5.224   7.686 -1.3615  1.1149  1.6056
 2688WAT      O24062   1.302   1.696   7.888  0.2415 -0.3817 -0.1974
 2688WAT     H124063   1.367   1.730   7.949 -0.8071  0.6811  0.3617
 2688WAT     H224064   1.332   1.726   7.802 -0.3016  1.4565  0.2154
 2689WAT      O24065   1.912   0.053   2.276 -0.0555  0.3797 -0.1140
 2689WAT     H124066   1.959  -0.029   2.287 -0.0615  0.3377 -0.4055
 2689WAT     H224067   1.914   0.071   2.182 -0.3923  0.5117 -0.1015
 2690WAT      O24068   5.382   1.614   1.135 -0.7175 -0.3521  0.4157
 2690WAT     H124069   5.328   1.672   1.189 -1.5767 -1.3215  0.6377
 2690WAT     H224070   5.471   1.627   1.166 -1.1853 -0.8767  2.0994
 2691WAT      O24071   2.479   2.996   2.152 -0.4438  0.1618  0.3137
 2691WAT     H124072   2.570   3.022   2.164 -0.5246 -0.2919  2.2884
 2691WAT     H224073   2.479   2.941   2.074  1.0080 -0.0148  0.4209
 2692WAT      O24074   3.374   2.316   5.773 -0.0937  0.2022 -0.5109
 2692WAT     H124075   3.365   2.400   5.819 -0.2270 -0.7261  1.2435
 2692WAT     H224076   3.284   2.290   5.751 -0.1644 -0.1115  0.1413
 2693WAT      O24077   0.899   3.139   1.215  0.0439  0.2320  0.2296
 2693WAT     H124078   0.844   3.078   1.263 -0.7414  0.0613 -0.8593
 2693WAT     H224079   0.864   3.139   1.126  0.7290  1.4194 -0.0687
 2694WAT      O24080   2.250   4.179   6.591 -0.5931  0.0812  0.0111
 2694WAT     H124081   2.233   4.085   6.590  0.9202 -0.2105 -0.4979
 2694WAT     H224082   2.310   4.192   6.665 -1.2012  0.7414  0.4046
 2695WAT      O24083   0.996   3.780   0.961  0.2868  0.2782  0.2645
 2695WAT     H124084   1.046   3.826   1.027 -0.0324 -0.6191  1.1577
 2695WAT     H224085   1.059   3.720   0.920  0.1105 -0.3835  0.9401
 2696WAT      O24086   3.618   3.015   1.181  0.2403 -0.1281  0.2481
 2696WAT     H124087   3.602   2.992   1.272 -0.8446 -1.4725 -0.2399
 2696WAT     H224088   3.703   3.058   1.181 -0.6551  1.8892  2.1930
 2697WAT      O24089   0.707   0.497   1.485  0.0054  0.2897 -0.5412
 2697WAT     H124090   0.745   0.547   1.413  0.6910  0.9096  0.2145
 2697WAT     H224091   0.680   0.414   1.447 -0.3881  0.9145 -1.6646
 2698WAT      O24092   0.408   0.988   6.774 -0.7431  0.7516 -0.6853
 2698WAT     H124093   0.472   0.986   6.845 -0.5712  0.1062 -0.8549
 2698WAT     H224094   0.386   1.081   6.765  1.2627  1.1857 -1.5958
 2699WAT      O24095   2.169   0.875   7.065 -1.0348 -0.2025  0.0459
 2699WAT     H124096   2.198   0.945   7.124 -0.0945 -1.3805  1.0117
 2699WAT     H224097   2.202   0.901   6.979  0.6890 -0.2296  0.6731
 2700WAT      O24098   1.806   5.333   1.048 -0.4388 -0.1255  0.2304
 2700WAT     H124099   1.794   5.282   0.968 -3.6905  2.3866 -1.0910
 2700WAT     H224100   1.763   5.280   1.116 -0.9645 -0.6187 -0.4701
 2701WAT      O24101   4.121   4.343   6.685  0.5145 -0.3698  0.2707
 2701WAT     H124102   4.142   4.328   6.593  0.4629 -0.1435  0.2225
 2701WAT     H224103   4.083   4.430   6.688  1.8903  0.2421  0.7231
 2702WAT      O24104   4.632   1.960   7.605 -0.7825 -0.3740  0.5623
 2702WAT     H124105   4.693   1.989   7.673  1.0649 -0.9925 -0.7479
 2702WAT     H224106   4.650   1.866   7.596 -3.2361 -0.9990  1.3587
 2703WAT      O24107   5.081   0.369   6.275  0.7292 -0.0359 -0.1883
 2703WAT     H124108   5.115   0.301   6.333  0.5114 -1.3355 -1.5129
 2703WAT     H224109   5.157   0.396   6.223  0.5264 -0.3049 -0.6337
 2704WAT      O24110   3.234   2.167   0.654 -0.2616  0.3407 -0.0599
 2704WAT     H124111   3.274   2.210   0.730  0.1548 -0.3509  0.1343
 2704WAT     H224112   3.243   2.073   0.673 -0.9260  0.1649 -0.5714
 2705WAT      O24113   4.687   6.028   7.356  0.1704 -0.0401 -0.0777
 2705WAT     H124114   4.668   6.018   7.449  1.2355  2.0241  0.4262
 2705WAT     H224115   4.777   5.996   7.347 -0.0088 -0.4545 -0.4739
 2706WAT      O24116   2.329   2.433   7.401  0.5959  0.0012 -0.1786
 2706WAT     H124117   2.392   2.361   7.402  1.0206  0.1236 -3.8894
 2706WAT     H224118   2.374   2.505   7.445  2.6246 -0.3163 -1.5998
 2707WAT      O24119   0.906   4.885   5.429 -0.3025  0.0938 -0.2371
 2707WAT     H124120   0.946   4.816   5.481 -0.7249 -0.6770 -0.8946
 2707WAT     H224121   0.965   4.898   5.355  0.6892  1.7281  0.7847
 2708WAT      O24122   0.486   3.333   6.498  0.7215  0.0011 -0.4774
 2708WAT     H124123   0.444   3.326   6.584  0.6596 -0.1983 -0.5228
 2708WAT     H224124   0.483   3.426   6.478 -1.3459 -0.1788 -1.2941
 2709WAT      O24125   0.393   0.845   0.961 -0.1810  0.3019  0.0673
 2709WAT     H124126   0.385   0.799   1.045  0.3150  0.0952  0.0016
 2709WAT     H224127   0.303   0.849   0.928 -0.4016  0.5193  0.6772
 2710WAT      O24128   2.677   2.425   7.715  0.4003  0.4676 -0.7813
 2710WAT     H124129   2.708   2.468   7.795 -3.3968 -1.4485  2.0171
 2710WAT     H224130   2.605   2.481   7.685 -0.5063 -0.6650 -0.7546
 2711WAT      O24131   3.503   4.267   0.352  0.2379  0.6725 -0.1096
 2711WAT     H124132   3.409   4.255   0.366  0.2714  0.5416  0.0014
 2711WAT     H224133   3.540   4.179   0.357  0.2731  0.6440 -0.8666
 2712WAT      O24134   2.034   1.810   1.165 -0.1516 -0.3324 -0.0190
 2712WAT     H124135   2.050   1.805   1.071 -0.3921  1.9055 -0.2316
 2712WAT     H224136   2.120   1.793   1.205  0.1694 -0.2963 -0.6765
 2713WAT      O24137   0.747   5.084   5.419 -0.2526 -0.1415  0.2270
 2713WAT     H124138   0.774   5.129   5.499 -1.1648 -0.4403  0.7099
 2713WAT     H224139   0.814   5.016   5.406  0.7769  0.9076 -0.1571
 2714WAT      O24140   5.357   2.990   7.313 -0.2353 -0.5564  0.2755
 2714WAT     H124141   5.428   2.986   7.377  0.7262 -0.1288 -0.7287
 2714WAT     H224142   5.277   2.989   7.366  0.5228 -0.4511  1.4658
 2715WAT      O24143   1.697   3.174   7.063 -0.0646  0.8103 -0.1783
 2715WAT     H124144   1.641   3.135   6.996  0.6160  0.0355 -0.3062
 2715WAT     H224145   1.732   3.253   7.021 -0.7095  1.0592 -0.2513
 2716WAT      O24146   6.155   3.318   0.147  0.5203 -0.0968  0.0330
 2716WAT     H124147   6.181   3.242   0.094  1.3960 -0.4832  0.9875
 2716WAT     H224148   6.221   3.385   0.127 -0.3524  0.5047 -0.9462
 2717WAT      O24149   3.411   4.622   7.884  0.1685  0.6328 -0.1086
 2717WAT     H124150   3.444   4.560   7.820  1.2218  0.4479  0.5827
 2717WAT     H224151   3.447   4.707   7.857  0.0592  0.6651 -0.1509
 2718WAT      O24152   4.759   4.898   1.376 -0.0070  0.5535 -0.1945
 2718WAT     H124153   4.816   4.923   1.303  0.5375  1.1968  0.4452
 2718WAT     H224154   4.670   4.910   1.341  0.1486 -1.7343 -1.6533
 2719WAT      O24155   4.677   4.568   7.882 -0.3409  0.1974  0.3332
 2719WAT     H124156   4.615   4.618   7.828  1.2252  1.5650 -0.2806
 2719WAT     H224157   4.721   4.634   7.934  0.3171 -0.8012  1.0690
 2720WAT      O24158   0.617   0.932   6.930  0.0488 -0.1247 -0.3194
 2720WAT     H124159   0.694   0.939   6.986  0.6401  0.6221 -1.1806
 2720WAT     H224160   0.642   0.868   6.863 -0.8729 -1.4724  0.5846
 2721WAT      O24161   0.848   4.329   7.459 -0.2322 -0.0467 -0.3173
 2721WAT     H124162   0.774   4.326   7.519  0.3074 -0.0502  0.3705
 2721WAT     H224163   0.813   4.299   7.376 -1.1161  0.4368 -0.1324
 2722WAT      O24164   2.655   0.201   7.739  0.0722 -0.0807  0.2768
 2722WAT     H124165   2.628   0.255   7.665  0.0702 -0.9344 -0.3628
 2722WAT     H224166   2.576   0.155   7.766  0.2309 -0.3294  0.3252
 2723WAT      O24167   3.480   2.605   6.329  0.5241 -0.3266  0.0522
 2723WAT     H124168   3.388   2.590   6.307  0.4456  0.5143 -0.2098
 2723WAT     H224169   3.483   2.601   6.425  0.2837 -0.6953  0.0476
 2724WAT      O24170   4.953   1.206   7.161 -0.2529 -0.4138 -0.0632
 2724WAT     H124171   4.903   1.288   7.156 -1.9162 -1.4649 -1.5542
 2724WAT     H224172   5.036   1.232   7.200 -0.2351  2.2266 -1.6043
 2725WAT      O24173   5.215   1.906   0.687  0.3895  0.0372 -0.3504
 2725WAT     H124174   5.301   1.917   0.727 -0.1420  3.3655  0.1887
 2725WAT     H224175   5.158   1.967   0.735 -2.0977 -1.3913 -1.2533
 2726WAT      O24176   1.234   5.403   1.197  0.3942 -0.3909  0.3492
 2726WAT     H124177   1.215   5.431   1.108  2.5462  1.6740  0.4376
 2726WAT     H224178   1.149   5.393   1.238 -0.6138 -0.2769 -1.6129
 2727WAT      O24179   0.053   1.670   1.122 -0.0899 -0.4470  0.3430
 2727WAT     H124180   0.092   1.632   1.043 -0.5373 -0.3117  0.0582
 2727WAT     H224181  -0.001   1.599   1.158 -1.1377 -0.0133 -0.3327
 2728WAT      O24182   1.057   5.026   7.506  0.8386  0.1826  0.1455
 2728WAT     H124183   1.008   5.108   7.496  0.3952 -0.1715 -0.7130
 2728WAT     H224184   1.143   5.044   7.467  0.2201 -0.2040 -1.4660
 2729WAT      O24185   0.984   1.634   1.126  0.0212 -0.1267  0.3683
 2729WAT     H124186   0.991   1.594   1.213  0.3865  1.6826  1.2288
 2729WAT     H224187   1.073   1.664   1.107 -0.6101  2.3902  0.9033
 2730WAT      O24188   1.373   0.852   0.395 -0.3225 -0.0482 -0.6741
 2730WAT     H124189   1.281   0.856   0.370  0.3861  1.5439 -3.5659
 2730WAT     H224190   1.377   0.891   0.482 -2.6222 -2.6525  0.7451
 2731WAT      O24191   1.506   3.680   7.043 -0.2177  0.6423 -0.6545
 2731WAT     H124192   1.458   3.602   7.015  1.0388 -0.4459  0.0781
 2731WAT     H224193   1.439   3.748   7.052 -1.0845  0.2344 -3.2406
 2732WAT      O24194   2.509   4.802   7.705 -0.2489 -0.1270 -0.3222
 2732WAT     H124195   2.579   4.809   7.639  0.6355 -0.4031  0.5552
 2732WAT     H224196   2.444   4.744   7.665 -0.5703  1.0563 -1.6318
 2733WAT      O24197   5.811   0.556   0.171 -0.4377 -0.2723 -0.2721
 2733WAT     H124198   5.858   0.639   0.178 -0.9066  0.1181 -1.3584
 2733WAT     H224199   5.874   0.490   0.198  0.6969  0.2505 -1.5149
 2734WAT      O24200   3.718   0.397   1.412  0.5727  0.4637 -0.1524
 2734WAT     H124201   3.645   0.339   1.391  0.5325  0.2157  0.6469
 2734WAT     H224202   3.795   0.340   1.406  0.9220  1.0411 -2.4755
 2735WAT      O24203   1.928   0.542   6.566  0.1290 -0.6547 -0.6453
 2735WAT     H124204   1.838   0.534   6.598  0.5683 -0.4558  0.7397
 2735WAT     H224205   1.920   0.591   6.485 -0.7902  2.2794  1.0646
 2736WAT      O24206   6.123   4.627   7.120  0.0116  0.5913  0.3928
 2736WAT     H124207   6.048   4.644   7.175 -1.8823 -2.0042 -1.1721
 2736WAT     H224208   6.107   4.678   7.040 -0.7479 -0.8875 -0.4245
 2737WAT      O24209   4.330   3.952   0.514  0.1034  0.5036 -0.4280
 2737WAT     H124210   4.286   4.033   0.540 -0.6778 -0.4227  1.2606
 2737WAT     H224211   4.422   3.977   0.507 -0.2565  1.7800 -1.0686
 2738WAT      O24212   0.983   5.795   1.973  0.1017  0.2630 -0.0601
 2738WAT     H124213   1.056   5.849   2.005  0.6228 -0.8410  0.7021
 2738WAT     H224214   0.912   5.857   1.960  0.4129  1.0453  1.6137
 2739WAT      O24215   4.587   0.574   6.001  0.4586 -0.1018  0.1487
 2739WAT     H124216   4.581   0.669   5.990 -0.3115 -0.1614  0.0290
 2739WAT     H224217   4.680   0.558   6.018  0.1718  1.0036  3.3628
 2740WAT      O24218   2.534   5.314   0.244  0.1504  0.1223 -0.4147
 2740WAT     H124219   2.510   5.350   0.159 -1.8031 -2.5515 -1.1061
 2740WAT     H224220   2.498   5.377   0.307  1.1409  1.8436 -1.4765
 2741WAT      O24221   3.665   3.410   5.001  0.4828 -0.1603  0.6138
 2741WAT     H124222   3.705   3.375   5.080  0.5838 -0.7521  0.3088
 2741WAT     H224223   3.585   3.359   4.990  1.1448 -1.0357 -0.3961
 2742WAT      O24224   0.576   0.253   6.336 -0.1313  0.2603  0.1514
 2742WAT     H124225   0.512   0.228   6.270 -1.3086  3.2001  0.0182
 2742WAT     H224226   0.659   0.256   6.289 -0.1944 -1.6606 -0.1518
 2743WAT      O24227   4.843   3.667   0.136  0.0555 -0.0633  0.0459
 2743WAT     H124228   4.852   3.750   0.089 -0.0703  0.7827  1.4501
 2743WAT     H224229   4.755   3.671   0.174 -0.4624 -1.4455 -0.9474
 2744WAT      O24230   0.340   5.497   1.113  0.6601 -0.1897  0.1242
 2744WAT     H124231   0.307   5.528   1.028  0.4968 -0.0074  0.2535
 2744WAT     H224232   0.386   5.415   1.092  0.4176 -0.2703 -0.1076
 2745WAT      O24233   1.915   2.551   0.036  0.3027 -0.1777 -0.4345
 2745WAT     H124234   1.920   2.487  -0.035 -0.2009  1.7340 -2.3157
 2745WAT     H224235   1.926   2.636  -0.008 -0.3382  1.1081  1.7455
 2746WAT      O24236   4.299   0.152   7.196  0.3814 -0.0276  0.0424
 2746WAT     H124237   4.271   0.104   7.274 -0.3743  1.7882  0.9667
 2746WAT     H224238   4.351   0.225   7.230 -0.2428  1.0027 -1.0875
 2747WAT      O24239   2.271   4.133   5.755 -0.3703  0.3140  0.8216
 2747WAT     H124240   2.284   4.214   5.706 -0.7917 -0.2207 -0.1826
 2747WAT     H224241   2.177   4.125   5.766 -0.5732 -1.4119 -1.4967
 2748WAT      O24242   4.027   1.021   0.046 -0.0557 -0.3837 -0.1249
 2748WAT     H124243   4.100   1.027   0.107 -0.3310  0.9918  0.1039
 2748WAT     H224244   3.989   0.935   0.063  0.6855 -0.5646  0.7048
 2749WAT      O24245   1.186   3.244   5.514 -0.0128 -0.2658  0.8530
 2749WAT     H124246   1.126   3.287   5.453  0.6069 -0.1258  0.3346
 2749WAT     H224247   1.270   3.241   5.468  1.1064  1.9399  2.5758
 2750WAT      O24248   1.726   1.714   0.607 -0.3143 -0.0619  0.3428
 2750WAT     H124249   1.750   1.683   0.519 -0.4803  0.6386  0.0384
 2750WAT     H224250   1.667   1.647   0.641 -0.9416  0.0853 -0.4346
 2751WAT      O24251   6.079   0.542   6.600 -0.2572  0.2893 -0.5272
 2751WAT     H124252   6.080   0.458   6.553 -1.0058  0.2846 -0.5449
 2751WAT     H224253   6.028   0.524   6.679 -1.7292  1.0935 -1.2534
 2752WAT      O24254   3.840   2.859   2.019 -0.1980 -0.1460 -0.2357
 2752WAT     H124255   3.789   2.934   2.048  0.0345 -0.1831  0.2701
 2752WAT     H224256   3.891   2.833   2.095  0.5986 -0.0884 -0.7293
 2753WAT      O24257   3.781   3.987   1.979 -0.2227  0.2159 -0.2768
 2753WAT     H124258   3.825   3.921   2.032 -0.9285 -0.8025 -0.9303
 2753WAT     H224259   3.853   4.033   1.934  0.2616 -0.1666  0.0891
 2754WAT      O24260   5.681   2.350   7.096  0.1007 -0.5280 -0.1247
 2754WAT     H124261   5.678   2.263   7.136  0.4417  0.0145  1.1462
 2754WAT     H224262   5.622   2.403   7.151 -1.9013 -0.4374 -2.1963
 2755WAT      O24263   4.547   5.304   1.803  0.7164  0.0801  0.1733
 2755WAT     H124264   4.560   5.322   1.896 -2.3281  0.4329  0.6363
 2755WAT     H224265   4.558   5.389   1.761  0.7112  0.2016  0.4134
 2756WAT      O24266   1.307   0.202   7.382 -0.2126  0.4052 -0.2653
 2756WAT     H124267   1.396   0.168   7.389 -0.2561 -0.0248 -1.6467
 2756WAT     H224268   1.317   0.296   7.371  0.0497  0.4148  0.0576
 2757WAT      O24269   5.685   1.142   6.727  0.1746 -0.1527  0.3967
 2757WAT     H124270   5.707   1.232   6.701 -0.0997  0.1019  1.0407
 2757WAT     H224271   5.647   1.103   6.648  0.9947  0.0530 -0.1134
 2758WAT      O24272   4.173   2.203   0.356 -0.7833 -0.0787 -0.0805
 2758WAT     H124273   4.221   2.214   0.438 -0.3231  0.1885 -0.3866
 2758WAT     H224274   4.240   2.182   0.291 -1.3222 -2.1767 -0.0402
 2759WAT      O24275   0.722   4.270   7.911  0.1450  0.1777  0.1188
 2759WAT     H124276   0.697   4.304   7.998 -1.4134  1.4824 -0.7708
 2759WAT     H224277   0.643   4.227   7.879  1.4503 -2.5742  0.3140
 2760WAT      O24278   1.006   4.530   7.229  0.1478  0.2822 -0.1484
 2760WAT     H124279   0.913   4.532   7.253 -0.5010  2.2706 -2.4292
 2760WAT     H224280   1.048   4.593   7.287 -0.0698  0.0183  0.3030
 2761WAT      O24281   0.699   0.223   5.539  0.0936 -0.1103 -0.1209
 2761WAT     H124282   0.726   0.310   5.567  0.6643 -0.5032  0.5748
 2761WAT     H224283   0.775   0.188   5.492 -0.1767 -0.1981 -0.5054
 2762WAT      O24284   3.807   5.336   2.094 -0.2117 -0.0332  0.0347
 2762WAT     H124285   3.799   5.394   2.018 -1.1003  0.7160  0.6853
 2762WAT     H224286   3.748   5.373   2.159  0.6979 -0.5497  1.1832
 2763WAT      O24287   0.139   5.320   6.779  0.1419  0.3071  0.0246
 2763WAT     H124288   0.225   5.303   6.739 -0.5977  0.1749 -1.6145
 2763WAT     H224289   0.085   5.246   6.750  0.3238 -1.6520  4.0339
 2764WAT      O24290   5.411   5.258   5.392  0.0742  0.2740  0.5380
 2764WAT     H124291   5.351   5.241   5.319  1.2744 -1.5463 -0.0902
 2764WAT     H224292   5.354   5.271   5.468 -1.1935  1.8877 -0.6116
 2765WAT      O24293   3.745   3.739   0.318 -0.5809 -0.3163  0.1208
 2765WAT     H124294   3.744   3.647   0.290 -0.7293 -0.8241  1.7182
 2765WAT     H224295   3.776   3.736   0.409  1.2557  1.3841 -0.3622
 2766WAT      O24296   1.002   2.913   1.432  0.0832 -0.3615  0.2732
 2766WAT     H124297   1.010   2.895   1.525 -0.0274  0.7112  0.4961
 2766WAT     H224298   0.912   2.943   1.420 -0.0359 -0.8918 -0.2578
 2767WAT      O24299   0.910   2.117   1.726  0.2056 -0.4967 -0.0143
 2767WAT     H124300   0.971   2.188   1.747  0.8613 -1.3674  1.1681
 2767WAT     H224301   0.842   2.124   1.793 -0.2878 -0.3508 -0.5252
 2768WAT      O24302   2.716   0.307   6.011 -0.2052  0.1691 -0.3671
 2768WAT     H124303   2.786   0.242   6.023 -0.3210 -0.1314 -1.2750
 2768WAT     H224304   2.642   0.271   6.059  0.4302  0.7938  1.1426
 2769WAT      O24305   1.866   1.779   6.543 -0.1864 -0.2763  0.4586
 2769WAT     H124306   1.954   1.815   6.554  0.0878 -0.9508  0.4998
 2769WAT     H224307   1.877   1.708   6.481 -0.8975  0.3372 -0.3935
 2770WAT      O24308   3.324   6.215   7.349 -0.2041 -0.3647  0.5082
 2770WAT     H124309   3.394   6.255   7.299  1.5533 -2.2655  1.2876
 2770WAT     H224310   3.280   6.288   7.392  1.7683  0.8599  0.5561
 2771WAT      O24311   4.274   4.629   0.084  0.5504  0.8895 -0.4832
 2771WAT     H124312   4.279   4.676   0.167 -0.4495 -0.0252  0.1135
 2771WAT     H224313   4.282   4.537   0.107 -2.4426  0.3601 -1.0125
 2772WAT      O24314   1.220   2.642   0.884  0.0493  0.4383 -0.0663
 2772WAT     H124315   1.287   2.640   0.953 -0.4257 -0.1443  0.3850
 2772WAT     H224316   1.258   2.592   0.812 -0.0759 -0.2944  0.3647
 2773WAT      O24317   1.642   1.020   7.402 -0.2270  0.3347 -0.2858
 2773WAT     H124318   1.569   1.027   7.464 -1.6813 -0.8383 -1.7972
 2773WAT     H224319   1.637   1.101   7.351  0.9420  1.2797  1.0061
 2774WAT      O24320   3.159   2.393   7.490  0.8170 -0.3368 -0.2179
 2774WAT     H124321   3.132   2.407   7.399  0.3014  2.2380  0.2599
 2774WAT     H224322   3.076   2.392   7.539  1.1021 -1.5491  0.2590
 2775WAT      O24323   6.028   5.005   1.281  0.0478 -0.7755  0.4700
 2775WAT     H124324   5.944   5.047   1.265  1.0198  1.0717 -0.1150
 2775WAT     H224325   6.064   4.989   1.194  0.9145 -0.1915  0.7035
 2776WAT      O24326   4.698   6.086   0.045  0.0992 -0.0690 -0.1831
 2776WAT     H124327   4.686   6.104   0.138  0.9297 -0.5631  0.0260
 2776WAT     H224328   4.696   6.171   0.003 -3.1903  0.0365 -0.0906
 2777WAT      O24329   1.487   6.224   0.397  0.0612 -0.2762  0.2912
 2777WAT     H124330   1.398   6.193   0.384 -0.1379 -0.0530  1.0752
 2777WAT     H224331   1.477   6.315   0.425  0.4368 -0.7369  2.0354
 2778WAT      O24332   5.182   3.772   5.561 -0.1376 -0.6242 -0.0471
 2778WAT     H124333   5.172   3.786   5.467  0.2075  0.4864  0.0666
 2778WAT     H224334   5.146   3.851   5.601  0.2688 -0.8188  0.7290
 2779WAT      O24335   4.899   1.103   1.398 -0.2395 -0.0957  0.3697
 2779WAT     H124336   4.906   1.057   1.314  0.4155 -2.0522  1.4454
 2779WAT     H224337   4.805   1.119   1.409 -0.2762  0.8746 -1.0531
 2780WAT      O24338   2.123   3.074   0.595 -0.3345 -0.1786  0.5215
 2780WAT     H124339   2.056   3.108   0.536  0.0129  0.9566  0.7551
 2780WAT     H224340   2.097   3.105   0.681  0.4392  0.2261  0.6234
 2781WAT      O24341   4.902   5.944   6.639  0.0796  0.1212  0.2381
 2781WAT     H124342   4.815   5.953   6.677  0.0831  1.7068 -0.0327
 2781WAT     H224343   4.902   6.007   6.567  0.7558 -1.3458 -1.0983
 2782WAT      O24344   0.063   5.183   0.725 -0.3024 -0.0521  0.7092
 2782WAT     H124345   0.090   5.181   0.633 -1.5307  0.8615  0.3071
 2782WAT     H224346   0.146   5.189   0.774  0.3011  1.0626 -0.3968
 2783WAT      O24347   1.951   3.864   7.564  0.0371 -0.0710 -0.8886
 2783WAT     H124348   1.921   3.941   7.517  1.9286  0.1009 -1.9062
 2783WAT     H224349   2.028   3.834   7.516  0.5726 -1.3799  0.6697
 2784WAT      O24350   4.278   1.133   7.518 -0.1568  0.2218  0.2809
 2784WAT     H124351   4.210   1.076   7.555  1.4026 -0.9467  1.5149
 2784WAT     H224352   4.317   1.176   7.595  2.5383 -1.5224  0.0117
 2785WAT      O24353   3.534   5.136   7.858 -0.1223  0.0041  0.1850
 2785WAT     H124354   3.490   5.192   7.794 -0.9524 -0.5435  0.2582
 2785WAT     H224355   3.610   5.186   7.886 -0.7220  0.9999  0.0749
 2786WAT      O24356   0.776   1.964   0.547  0.2752 -0.4491  0.4560
 2786WAT     H124357   0.836   1.893   0.527  1.2128  0.7304 -1.1821
 2786WAT     H224358   0.768   2.013   0.465 -0.6045  1.1422  1.4269
 2787WAT      O24359   5.846   5.402   6.939  0.3993 -0.3960  0.0352
 2787WAT     H124360   5.771   5.409   6.999  0.0555 -2.3726 -0.1062
 2787WAT     H224361   5.914   5.457   6.980 -1.3448  2.2309 -0.3285
 2788WAT      O24362   1.214   5.447   0.925  0.0074 -0.4493  0.5577
 2788WAT     H124363   1.207   5.366   0.874 -0.3579 -1.3865  2.0277
 2788WAT     H224364   1.293   5.490   0.891  1.0990 -2.1771  0.7524
 2789WAT      O24365   4.656   1.077   5.723 -0.1495  0.2647  0.2191
 2789WAT     H124366   4.572   1.032   5.722 -2.1726  3.7024  0.0234
 2789WAT     H224367   4.663   1.112   5.812 -0.1759  1.9694 -0.4016
 2790WAT      O24368   4.030   2.983   7.593 -0.4697 -0.5502 -0.7109
 2790WAT     H124369   3.997   3.066   7.558  0.6334 -0.8959 -2.7766
 2790WAT     H224370   4.113   3.005   7.635  0.8915 -0.7704 -3.0647
 2791WAT      O24371   1.375   4.512   2.609 -0.1209 -0.5874  0.2393
 2791WAT     H124372   1.439   4.448   2.577  0.9041  0.6668 -0.3136
 2791WAT     H224373   1.427   4.577   2.655 -0.8318  1.0575 -1.1637
 2792WAT      O24374   3.415   1.786   1.839 -0.3824  0.1754 -0.2090
 2792WAT     H124375   3.389   1.755   1.926  0.9057  1.8704  0.8516
 2792WAT     H224376   3.365   1.866   1.826  0.2936  0.5641 -0.4901
 2793WAT      O24377   1.008   0.214   6.391 -0.4453  0.2709 -0.1506
 2793WAT     H124378   1.074   0.283   6.394  0.7629 -0.8357 -0.4516
 2793WAT     H224379   1.001   0.183   6.481 -1.0801  0.8334  0.0077
 2794WAT      O24380   1.341   3.570   0.556  0.1313  1.3302 -0.2501
 2794WAT     H124381   1.369   3.587   0.466 -1.0691  0.5748 -0.8011
 2794WAT     H224382   1.320   3.656   0.591 -0.5513  1.5280 -1.1185
 2795WAT      O24383   6.149   2.818   6.728 -0.1505  0.3888 -0.6021
 2795WAT     H124384   6.208   2.893   6.735  0.4643 -0.0289 -1.1554
 2795WAT     H224385   6.062   2.854   6.744  0.1265  1.2431 -0.9570
 2796WAT      O24386   5.061   0.146   0.216  0.1911 -0.0661  0.3514
 2796WAT     H124387   5.096   0.213   0.275  2.1175 -0.3099 -0.4565
 2796WAT     H224388   5.036   0.194   0.137  1.0014 -0.2052  0.0046
 2797WAT      O24389   2.960   1.357   7.923  0.2167  0.2061  0.4014
 2797WAT     H124390   3.023   1.390   7.860 -0.9218  1.5755 -0.0887
 2797WAT     H224391   2.911   1.435   7.951 -0.0755 -0.5335  2.1108
 2798WAT      O24392   2.319   3.972   0.844  0.0740  0.6647  0.0347
 2798WAT     H124393   2.359   3.911   0.781  0.1801 -0.2690  0.9798
 2798WAT     H224394   2.394   4.015   0.885  0.0972 -0.2299  0.9688
 2799WAT      O24395   0.296   4.673   7.892  0.3145 -0.0535 -0.0930
 2799WAT     H124396   0.351   4.597   7.911 -0.7865 -1.1804 -1.2257
 2799WAT     H224397   0.246   4.647   7.814 -3.2421  0.1311  1.9175
 2800WAT      O24398   1.801   3.645   0.664  0.4356  0.0592 -0.8853
 2800WAT     H124399   1.718   3.598   0.672  0.6779 -0.4922 -1.5301
 2800WAT     H224400   1.809   3.695   0.745 -1.0402  0.9683 -1.2629
 2801WAT      O24401   2.574   2.612   7.269  0.2416  0.2457 -0.3159
 2801WAT     H124402   2.546   2.664   7.345 -1.2505  0.1081 -0.7542
 2801WAT     H224403   2.542   2.661   7.193  0.0846 -0.5694 -0.7866
 2802WAT      O24404   2.929   1.911   7.704 -0.6842  0.2440 -0.4512
 2802WAT     H124405   3.020   1.903   7.733 -0.8629 -0.0546  0.0380
 2802WAT     H224406   2.891   1.976   7.764 -1.0705 -0.4109  0.0320
 2803WAT      O24407   2.724   4.969   6.515  0.0562 -0.0305 -0.1550
 2803WAT     H124408   2.693   4.910   6.584  0.6266 -0.0515  0.0872
 2803WAT     H224409   2.651   5.029   6.501  0.7392  1.4289  2.0858
 2804WAT      O24410   3.442   6.078   7.585 -0.1253  0.1606  0.0204
 2804WAT     H124411   3.472   6.028   7.661  3.7575  0.2107 -1.2811
 2804WAT     H224412   3.418   6.011   7.521  3.2157 -0.1701 -1.0343
 2805WAT      O24413   2.989   3.364   5.966 -0.0849  0.5024  0.3425
 2805WAT     H124414   2.992   3.341   5.873 -0.4430 -0.3920  0.5371
 2805WAT     H224415   3.076   3.398   5.985 -0.4501  2.1022 -0.6448
 2806WAT      O24416   4.414   4.913   7.519  0.0555  0.7805 -0.5244
 2806WAT     H124417   4.467   4.914   7.440 -0.6257  1.3836 -0.9846
 2806WAT     H224418   4.440   4.992   7.567  0.2656  0.5639 -0.2748
 2807WAT      O24419   3.926   2.029   7.511  0.0374 -0.2354  0.5082
 2807WAT     H124420   4.001   2.015   7.569 -1.1456 -1.5739  1.8014
 2807WAT     H224421   3.911   1.943   7.471  0.2428  0.4402 -1.1168
 2808WAT      O24422   3.862   0.726   7.267  0.0428  0.7016 -0.2111
 2808WAT     H124423   3.898   0.810   7.238 -1.5591  1.3975 -0.3360
 2808WAT     H224424   3.776   0.722   7.224 -0.6661 -0.1540  1.2248
 2809WAT      O24425   3.439   0.092   6.509  0.1601  0.2378 -0.4022
 2809WAT     H124426   3.347   0.116   6.505 -0.1320 -0.5957  0.7221
 2809WAT     H224427   3.479   0.158   6.564 -0.2060 -0.5370  0.8472
 2810WAT      O24428   3.753   1.907   0.618  0.3764  0.3005  0.1839
 2810WAT     H124429   3.679   1.965   0.636 -1.8041 -2.1897 -0.1476
 2810WAT     H224430   3.830   1.963   0.627 -1.5237  3.1282  0.1845
 2811WAT      O24431   6.182   6.082   7.864 -0.0962 -0.4961 -0.4619
 2811WAT     H124432   6.169   6.097   7.770 -0.9657 -1.5449 -0.5251
 2811WAT     H224433   6.097   6.053   7.896 -0.2674  1.4831  1.0162
 2812WAT      O24434   5.783   4.319   0.561  0.1724  0.0386 -0.2082
 2812WAT     H124435   5.828   4.258   0.502 -0.2474  1.6073 -2.2472
 2812WAT     H224436   5.826   4.306   0.645  1.0546 -2.0294 -0.9077
 2813WAT      O24437   5.534   3.578   6.224 -0.1128 -0.0914  0.0877
 2813WAT     H124438   5.589   3.648   6.259 -0.6681  0.8548 -0.8775
 2813WAT     H224439   5.591   3.531   6.163 -0.5096  1.2894 -1.4115
 2814WAT      O24440   0.607   4.664   7.918  0.3681  0.7173  0.5003
 2814WAT     H124441   0.643   4.602   7.854 -0.9467 -1.1646  1.4753
 2814WAT     H224442   0.611   4.617   8.002  0.6251  2.5324  1.5460
 2815WAT      O24443   5.456   4.433   0.293  0.5652  0.3842 -0.5490
 2815WAT     H124444   5.387   4.488   0.331  0.3301  0.0672 -0.5181
 2815WAT     H224445   5.436   4.345   0.323  0.7041  0.2152 -0.9519
 2816WAT      O24446   2.247   3.605   0.491  0.1148 -0.0234  0.4317
 2816WAT     H124447   2.196   3.535   0.450  1.1499 -0.2835 -0.4560
 2816WAT     H224448   2.203   3.686   0.464  0.9188 -0.1724 -1.4555
 2817WAT      O24449   0.386   0.034   0.480  0.6632 -0.0943 -0.2692
 2817WAT     H124450   0.455   0.052   0.544 -0.1484 -2.6103  1.4843
 2817WAT     H224451   0.371   0.117   0.435  4.9532  0.5357 -0.9378
 2818WAT      O24452   0.480   4.211   7.719  0.0400  0.9045 -0.0478
 2818WAT     H124453   0.435   4.190   7.637  1.4179  1.0843 -0.8895
 2818WAT     H224454   0.411   4.214   7.784 -0.9138 -0.9005 -0.8835
 2819WAT      O24455   2.899   4.088   6.740 -0.6699 -0.3654  0.2364
 2819WAT     H124456   2.884   4.101   6.647  0.2197  0.3904  0.1812
 2819WAT     H224457   2.923   3.996   6.748 -1.8078 -0.7188 -0.1150
 2820WAT      O24458   4.495   0.524   1.081 -0.1679  0.1886  0.1039
 2820WAT     H124459   4.562   0.592   1.068  1.5660 -1.1089  1.7057
 2820WAT     H224460   4.508   0.463   1.008  0.0226  0.2325  0.1002
 2821WAT      O24461   3.315   2.298   6.253  0.1592  0.0661 -0.2012
 2821WAT     H124462   3.410   2.309   6.259  0.0165  0.6885  2.3622
 2821WAT     H224463   3.282   2.387   6.239 -0.0652 -0.1052 -0.7580
 2822WAT      O24464   4.186   0.273   6.998  0.1568 -0.6888 -0.3105
 2822WAT     H124465   4.210   0.359   7.032  1.9041 -1.0704 -0.4714
 2822WAT     H224466   4.226   0.211   7.059 -1.0357 -1.4053 -0.2310
 2823WAT      O24467   3.430   0.700   2.271  0.0878  1.0330  0.3477
 2823WAT     H124468   3.411   0.615   2.231  0.1502  1.0378  0.3086
 2823WAT     H224469   3.453   0.679   2.361 -2.1468  1.1951  0.9991
 2824WAT      O24470   1.574   4.976   7.078  0.1561  0.2697 -0.2032
 2824WAT     H124471   1.637   4.922   7.030 -0.8560 -0.3315 -0.8919
 2824WAT     H224472   1.496   4.977   7.023 -0.6025  0.6268  0.8399
 2825WAT      O24473   4.648   3.919   6.997 -0.4035 -0.0429  0.2217
 2825WAT     H124474   4.568   3.891   6.953 -0.7299 -1.3993  1.6196
 2825WAT     H224475   4.626   4.003   7.037 -0.7709  0.1185 -0.3084
 2826WAT      O24476   5.342   4.584   6.720 -0.0003 -0.0165 -0.1968
 2826WAT     H124477   5.276   4.562   6.654 -0.6000  1.3600 -0.0989
 2826WAT     H224478   5.422   4.602   6.671 -0.2426  0.2497 -0.4996
 2827WAT      O24479   0.346   3.210   1.014  0.1732  0.0805 -0.3500
 2827WAT     H124480   0.353   3.114   1.010  2.4215  0.2258 -1.5847
 2827WAT     H224481   0.390   3.234   1.095 -0.2607  0.0711 -0.1125
 2828WAT      O24482   4.678   1.141   6.013  0.6331 -0.2562 -0.2064
 2828WAT     H124483   4.608   1.192   5.972  0.6178 -0.3230 -0.2641
 2828WAT     H224484   4.724   1.203   6.070 -0.2300 -0.4970  0.7737
 2829WAT      O24485   0.438   3.091   6.020 -0.2429  0.2746  0.3407
 2829WAT     H124486   0.383   3.078   6.098 -1.0392  0.1199 -0.2328
 2829WAT     H224487   0.376   3.118   5.952  0.6709  2.2909  0.2223
 2830WAT      O24488   4.669   5.196   1.159  0.7290  0.0085 -0.3033
 2830WAT     H124489   4.602   5.229   1.100  0.6164  2.0786  0.8596
 2830WAT     H224490   4.630   5.203   1.246  1.3649 -1.6875  0.1434
 2831WAT      O24491   5.721   1.635   0.084  0.0298 -0.2255  0.3582
 2831WAT     H124492   5.649   1.697   0.071  0.6470  0.2200 -1.0846
 2831WAT     H224493   5.686   1.551   0.056  0.3857  0.1850 -1.4058
 2832WAT      O24494   4.721   1.703   7.234  0.4031 -0.2584  0.1503
 2832WAT     H124495   4.816   1.706   7.223  0.8194  3.4073  2.7490
 2832WAT     H224496   4.707   1.670   7.322 -0.6276  0.3810  0.2530
 2833WAT      O24497   1.707   2.113   0.837 -0.1484  0.0026  0.2958
 2833WAT     H124498   1.787   2.159   0.812  0.2707 -1.1121 -0.5092
 2833WAT     H224499   1.683   2.062   0.759 -1.4629  0.0583  0.6357
 2834WAT      O24500   1.607   1.617   0.340  0.1948 -0.1324 -0.0690
 2834WAT     H124501   1.656   1.690   0.302 -1.4134  1.3119  0.4900
 2834WAT     H224502   1.649   1.539   0.304  2.2180  1.0321 -0.3937
 2835WAT      O24503   1.978   5.140   0.390  0.4006 -0.6806  0.9868
 2835WAT     H124504   2.059   5.182   0.359 -0.0205 -0.0344  0.7450
 2835WAT     H224505   1.965   5.068   0.329  0.5123 -0.4679  0.7071
 2836WAT      O24506   1.048   0.873   0.655 -0.4838 -0.5270  0.0402
 2836WAT     H124507   1.134   0.880   0.697 -0.2856  0.2841 -0.4846
 2836WAT     H224508   0.993   0.831   0.722  0.5730 -2.1395 -0.0186
 2837WAT      O24509   6.105   2.752   0.876  0.0359  0.1398 -0.4958
 2837WAT     H124510   6.064   2.795   0.801 -0.9346 -0.8493 -0.5649
 2837WAT     H224511   6.043   2.766   0.948  0.2103 -0.2454 -0.2684
 2838WAT      O24512   5.323   1.524   0.506 -0.1200  0.5413 -0.1404
 2838WAT     H124513   5.300   1.471   0.429 -0.9173  1.1668 -0.3490
 2838WAT     H224514   5.320   1.614   0.474  0.2036  0.7657  0.4649
 2839WAT      O24515   5.767   5.696   7.139 -0.6105 -0.1832  0.4630
 2839WAT     H124516   5.842   5.745   7.106  0.3293  0.4931  3.3002
 2839WAT     H224517   5.705   5.764   7.167 -0.6898 -0.6540  1.4589
 2840WAT      O24518   0.140   5.915   0.310  0.1647  0.5032 -0.4850
 2840WAT     H124519   0.176   5.929   0.398  0.1289  0.0716 -0.4003
 2840WAT     H224520   0.045   5.922   0.322 -0.0312 -2.0564  0.0068
 2841WAT      O24521   2.537   4.988   1.494  0.5710  0.1094 -0.1888
 2841WAT     H124522   2.445   5.010   1.484  0.1085  0.2257  3.1521
 2841WAT     H224523   2.583   5.072   1.491  0.7466  0.0069 -2.4541
 2842WAT      O24524   6.091   4.659   0.399  0.7334 -0.2483 -0.6558
 2842WAT     H124525   6.039   4.739   0.402 -0.3181 -0.9254 -0.4185
 2842WAT     H224526   6.028   4.590   0.378  1.8117 -0.8697 -2.0696
 2843WAT      O24527   3.872   0.747   1.142 -0.1836  0.1102  0.2512
 2843WAT     H124528   3.927   0.669   1.150  0.0903  0.2864  0.1072
 2843WAT     H224529   3.816   0.745   1.220 -0.0485 -0.1318  0.3421
 2844WAT      O24530   2.125   3.933   1.038  0.1357 -0.0935 -0.1173
 2844WAT     H124531   2.153   3.998   0.974 -0.1778  0.1173 -0.0413
 2844WAT     H224532   2.206   3.900   1.076  0.2658  0.8302  0.4132
 2845WAT      O24533   2.323   3.277   6.270 -0.1126 -0.1015 -0.9595
 2845WAT     H124534   2.288   3.292   6.182  0.5168  1.3976 -0.9881
 2845WAT     H224535   2.248   3.287   6.328 -0.2859  0.1769 -1.2295
 2846WAT      O24536   3.581   3.948   1.273  0.3160 -0.6328  0.1258
 2846WAT     H124537   3.542   4.013   1.331  1.8425  0.7057 -0.2878
 2846WAT     H224538   3.509   3.919   1.218 -0.2885  1.1711 -0.0976
 2847WAT      O24539   3.073   0.065   2.287  0.9906  0.2246 -0.3462
 2847WAT     H124540   3.121   0.145   2.309  0.5354  0.8132 -1.4302
 2847WAT     H224541   2.982   0.093   2.279  0.6864 -0.5789  0.0830
 2848WAT      O24542   0.610   3.963   7.806  0.5060 -0.3096 -0.0783
 2848WAT     H124543   0.698   3.970   7.768  0.3930  2.0283 -0.0466
 2848WAT     H224544   0.571   4.049   7.792 -1.6166 -1.1323  0.3859
 2849WAT      O24545   0.378   4.770   0.829 -0.2082  0.2884 -0.1728
 2849WAT     H124546   0.359   4.755   0.737 -0.3359  1.1141 -0.2962
 2849WAT     H224547   0.370   4.684   0.871  2.6246 -0.6929 -1.3739
 2850WAT      O24548   0.022   4.045   0.597  0.3534  0.7113 -0.1811
 2850WAT     H124549  -0.037   4.095   0.654 -1.1838 -0.4279 -0.6959
 2850WAT     H224550   0.003   3.953   0.617  0.3422  0.2881 -1.9252
 2851WAT      O24551   4.376   0.107   1.259 -0.1799  0.2168  0.4631
 2851WAT     H124552   4.398   0.133   1.170 -2.3261 -0.7697 -0.4015
 2851WAT     H224553   4.366   0.190   1.306 -0.8303  0.8178 -0.6810
 2852WAT      O24554   5.010   3.999   7.170  0.0481  0.6405 -0.1239
 2852WAT     H124555   4.928   3.963   7.204 -0.4985  0.4655 -1.5723
 2852WAT     H224556   5.078   3.956   7.221 -0.7579  2.3328  2.5969
 2853WAT      O24557   0.469   5.297   6.817  0.2314  0.2390  0.2306
 2853WAT     H124558   0.531   5.318   6.887  1.1278 -1.6801  0.0666
 2853WAT     H224559   0.424   5.218   6.848 -1.4603  1.0165 -0.1117
 2854WAT      O24560   3.824   5.588   0.934  0.0620 -0.4625 -0.3585
 2854WAT     H124561   3.879   5.552   1.004  0.9343  0.4917 -0.5213
 2854WAT     H224562   3.884   5.641   0.882 -0.9809  0.4232 -0.6891
 2855WAT      O24563   0.723   2.315   0.867 -0.0045 -0.3382 -0.1613
 2855WAT     H124564   0.804   2.293   0.821  0.8157  0.7402  0.7244
 2855WAT     H224565   0.750   2.372   0.938 -1.6627  0.9807 -0.5196
 2856WAT      O24566   2.690   3.601   6.964  0.2532 -0.2176  0.0764
 2856WAT     H124567   2.647   3.686   6.955 -0.5934 -0.6541 -0.0653
 2856WAT     H224568   2.707   3.592   7.058  0.4433  0.1558  0.0777
 2857WAT      O24569   4.266   6.004   1.164  0.2024 -0.3784 -0.3960
 2857WAT     H124570   4.300   5.997   1.074  0.1981 -2.8699 -0.2677
 2857WAT     H224571   4.344   6.014   1.219  0.3298 -0.6112 -0.5337
 2858WAT      O24572   3.454   3.947   6.826 -0.7090 -0.1366 -0.3905
 2858WAT     H124573   3.493   3.887   6.888  1.2453  0.6583 -0.7734
 2858WAT     H224574   3.428   4.022   6.878  0.2436  0.2145 -0.3977
 2859WAT      O24575   5.363   2.776   0.373 -0.1047 -0.3367  0.2405
 2859WAT     H124576   5.382   2.691   0.412 -0.0593  0.6432  2.4941
 2859WAT     H224577   5.322   2.826   0.443  1.4828  2.0976 -0.4339
 2860WAT      O24578   0.632   2.050   0.125 -0.0744 -0.0123 -0.3932
 2860WAT     H124579   0.586   2.073   0.206 -0.0313  1.0216 -0.6429
 2860WAT     H224580   0.671   2.132   0.096  2.0616 -0.8820 -0.1372
 2861WAT      O24581   1.420   3.555   0.258  0.0151 -0.0326  0.1905
 2861WAT     H124582   1.334   3.557   0.217  0.1893 -1.7863 -0.3436
 2861WAT     H224583   1.459   3.640   0.236 -0.2510 -0.5285 -2.5530
 2862WAT      O24584   5.270   4.903   7.692 -0.4913  0.2674  0.3150
 2862WAT     H124585   5.344   4.961   7.714 -0.5501  0.0578  1.1136
 2862WAT     H224586   5.253   4.920   7.600  2.0527 -1.3719 -0.5524
 2863WAT      O24587   3.981   0.990   1.182 -0.0686 -0.2039 -0.4345
 2863WAT     H124588   3.912   1.057   1.175 -0.1786 -0.1784  0.7165
 2863WAT     H224589   3.934   0.907   1.184 -0.0715 -0.1829  0.4174
 2864WAT      O24590   0.038   1.803   6.567  0.0741 -0.1610  0.1761
 2864WAT     H124591   0.130   1.821   6.551 -0.0458  0.3667  0.0896
 2864WAT     H224592   0.030   1.801   6.663 -0.7138  4.6303  0.4462
 2865WAT      O24593   4.139   2.466   6.812 -0.2680  0.0703 -0.0679
 2865WAT     H124594   4.070   2.474   6.747  0.1997  0.3440 -0.5398
 2865WAT     H224595   4.102   2.409   6.880 -1.1353  0.6214 -0.0614
 2866WAT      O24596   6.169   4.651   1.347  0.3317  0.2267  0.0782
 2866WAT     H124597   6.250   4.694   1.376  1.0525 -1.2594  0.3970
 2866WAT     H224598   6.177   4.561   1.380 -1.5791  0.1033  0.3344
 2867WAT      O24599   0.681   4.324   6.325 -0.1606 -0.0597 -0.5340
 2867WAT     H124600   0.670   4.408   6.281  0.6561 -0.2646 -1.1558
 2867WAT     H224601   0.722   4.345   6.409 -2.4737  0.4167  0.5394
 2868WAT      O24602   3.110   3.118   6.166 -0.5124 -0.1357 -0.2004
 2868WAT     H124603   3.193   3.149   6.130 -0.8709 -0.8082 -1.7030
 2868WAT     H224604   3.118   3.132   6.260  0.3332  2.0888 -0.5236
 2869WAT      O24605   2.670   2.054   6.582 -0.4473 -0.7024 -0.6550
 2869WAT     H124606   2.748   2.109   6.589 -1.1304  0.2166  0.0915
 2869WAT     H224607   2.608   2.107   6.532 -2.0726  0.4424  2.2935
 2870WAT      O24608   3.285   3.228   6.957  0.2358 -0.1217  0.6828
 2870WAT     H124609   3.305   3.250   7.049 -1.4218 -1.7841  1.4991
 2870WAT     H224610   3.223   3.295   6.929 -0.2787 -0.3634  1.2283
 2871WAT      O24611   0.272   4.860   0.158 -0.3054  0.4000 -0.1168
 2871WAT     H124612   0.277   4.783   0.102  0.7291  0.5316 -0.2151
 2871WAT     H224613   0.319   4.928   0.109  1.4977  0.2561  1.3319
 2872WAT      O24614   4.465   3.088   0.062  0.0797  0.3234  0.2890
 2872WAT     H124615   4.387   3.033   0.070  0.5975 -0.4443  0.1229
 2872WAT     H224616   4.445   3.165   0.116 -0.8952  0.2631  0.0339
 2873WAT      O24617   2.439   4.506   0.031 -0.0913 -0.0247 -0.6884
 2873WAT     H124618   2.370   4.558   0.071 -0.9575 -1.3236 -0.4120
 2873WAT     H224619   2.420   4.509  -0.063  0.1908  0.6036 -0.7257
 2874WAT      O24620   5.256   3.204   1.482  0.1706 -0.4735  0.2950
 2874WAT     H124621   5.302   3.147   1.543 -1.0986  0.2560  2.0179
 2874WAT     H224622   5.237   3.283   1.532 -1.2133  0.0250 -0.9266
 2875WAT      O24623   3.144   2.841   0.224 -0.0893 -0.1482  0.4193
 2875WAT     H124624   3.156   2.771   0.288 -0.2328  0.6915  1.3995
 2875WAT     H224625   3.225   2.841   0.173  0.2117 -0.5559  0.8883
 2876WAT      O24626   3.686   2.735   6.718  0.3227 -0.5876  0.2182
 2876WAT     H124627   3.696   2.827   6.742  1.3568 -0.6816  0.1648
 2876WAT     H224628   3.752   2.720   6.650 -0.7860 -1.0132 -0.8164
 2877WAT      O24629   5.792   0.804   0.554  0.0688  0.2530  0.1534
 2877WAT     H124630   5.713   0.850   0.525  0.7830  3.1074  2.2370
 2877WAT     H224631   5.772   0.777   0.643  1.2873  0.7042  0.5840
 2878WAT      O24632   5.027   4.011   7.464  0.1558  0.1012  0.3578
 2878WAT     H124633   4.992   3.921   7.466 -0.1880  0.2390  1.8955
 2878WAT     H224634   5.121   4.000   7.456  0.3111 -0.4981  2.4271
 2879WAT      O24635   0.093   5.409   7.497  0.1393 -0.0051 -0.4968
 2879WAT     H124636   0.126   5.471   7.431 -1.4874  0.1303 -1.2292
 2879WAT     H224637   0.011   5.376   7.461 -1.9921  1.6881  2.3270
 2880WAT      O24638   2.004   3.204   6.883 -0.1333  0.0397  0.1439
 2880WAT     H124639   2.004   3.109   6.897 -0.7254 -0.0024 -0.1136
 2880WAT     H224640   2.092   3.231   6.906  0.2155 -0.6581 -0.3326
 2881WAT      O24641   4.062   2.205   5.765  0.1499  0.4539  0.5439
 2881WAT     H124642   4.077   2.113   5.790 -0.0652  0.1179 -0.4994
 2881WAT     H224643   4.140   2.251   5.796  0.3637 -0.1250  0.8899
 2882WAT      O24644   3.822   5.376   0.749 -0.4738  0.1889 -0.1464
 2882WAT     H124645   3.855   5.462   0.774  1.5583 -0.7645  0.6840
 2882WAT     H224646   3.761   5.394   0.678  0.0647  2.2913 -0.1561
 2883WAT      O24647   3.961   2.883   1.036 -0.0864 -0.8007 -0.3742
 2883WAT     H124648   4.054   2.903   1.026 -0.2197 -0.6310 -1.3399
 2883WAT     H224649   3.934   2.932   1.113  0.4326 -0.1860 -0.5773
 2884WAT      O24650   4.902   2.246   7.426  0.1151  1.2534  1.0006
 2884WAT     H124651   4.931   2.215   7.512 -0.4878 -0.7168  0.5363
 2884WAT     H224652   4.972   2.219   7.366 -1.3755 -1.2656  0.2628
 2885WAT      O24653   4.480   1.317   6.890  0.2195  0.0276  0.1685
 2885WAT     H124654   4.401   1.339   6.939  0.9011 -0.7074  1.6913
 2885WAT     H224655   4.552   1.355   6.942  0.8179  2.6436 -2.3219
 2886WAT      O24656   2.987   6.063   7.803  0.8005  0.5863  0.6672
 2886WAT     H124657   3.019   5.977   7.829  0.6813  0.4374  0.3304
 2886WAT     H224658   3.037   6.084   7.724 -1.4722 -0.6595 -1.2442
 2887WAT      O24659   5.137   3.115   2.183  0.1247  0.7536  0.0411
 2887WAT     H124660   5.140   3.209   2.204  1.2944  0.2975  2.2362
 2887WAT     H224661   5.048   3.101   2.152  0.1728  2.7351 -1.2025
 2888WAT      O24662   0.162   2.125   2.031  0.4172  0.1643 -0.1146
 2888WAT     H124663   0.146   2.039   2.070  0.4552 -0.2951 -1.0816
 2888WAT     H224664   0.077   2.169   2.033 -0.6867 -1.5189 -3.4389
 2889WAT      O24665   3.494   4.235   1.990 -0.3052 -0.6604  0.4101
 2889WAT     H124666   3.410   4.228   1.944 -1.0390 -0.4090  1.6586
 2889WAT     H224667   3.557   4.190   1.932 -1.1343 -0.1974 -0.9056
 2890WAT      O24668   3.735   6.189   1.338 -0.3558 -0.2529 -0.0264
 2890WAT     H124669   3.793   6.248   1.289 -1.6646  2.6533  1.6500
 2890WAT     H224670   3.794   6.125   1.379  1.1703 -0.0257 -1.7355
 2891WAT      O24671   2.908   2.845   0.353  0.1221 -0.3918 -0.0020
 2891WAT     H124672   2.942   2.786   0.421  1.1474 -0.4226 -0.5185
 2891WAT     H224673   2.982   2.856   0.293 -0.5776  0.1325 -0.7761
 2892WAT      O24674   3.264   5.188   7.185  0.0138 -0.1261 -0.0862
 2892WAT     H124675   3.179   5.174   7.143 -0.0386 -0.2774  0.0685
 2892WAT     H224676   3.317   5.231   7.118  0.2744 -1.3293 -0.6832
 2893WAT      O24677   4.252   0.932   6.742  0.1193  0.3955 -0.1895
 2893WAT     H124678   4.212   0.913   6.827  0.5223  0.1843 -0.0471
 2893WAT     H224679   4.183   0.977   6.693  0.0810  1.0682  0.4643
 2894WAT      O24680   5.576   2.529   0.364  0.4367  0.2215 -0.0145
 2894WAT     H124681   5.659   2.574   0.346 -0.6215  2.2594 -0.1491
 2894WAT     H224682   5.542   2.505   0.278  0.3332  0.4905 -0.0517
 2895WAT      O24683   3.862   5.456   7.722 -0.4494  0.2558 -0.6410
 2895WAT     H124684   3.827   5.532   7.675  2.3644  1.4234 -1.0707
 2895WAT     H224685   3.849   5.383   7.663  0.7835  1.2639 -2.2393
 2896WAT      O24686   1.897   4.241   7.829  0.0525 -0.4451  0.3623
 2896WAT     H124687   1.898   4.148   7.806  0.1595 -0.3887  0.1273
 2896WAT     H224688   1.820   4.276   7.784 -0.3196 -0.5307  0.9184
 2897WAT      O24689   0.710   1.338   7.217 -0.0263  0.3110  1.3339
 2897WAT     H124690   0.770   1.279   7.172 -0.7470  0.4583  0.1464
 2897WAT     H224691   0.629   1.287   7.226 -0.7300  1.1737  0.0924
 2898WAT      O24692   3.033   5.552   0.453  0.0643 -0.6256  0.1378
 2898WAT     H124693   2.977   5.516   0.385  1.7586 -1.8216 -0.7051
 2898WAT     H224694   2.995   5.522   0.535 -0.7417 -1.0772 -0.3914
 2899WAT      O24695   1.421   2.208   0.170  0.2316  0.4376  0.2796
 2899WAT     H124696   1.443   2.132   0.225 -0.5786 -0.9157 -1.1683
 2899WAT     H224697   1.403   2.170   0.084 -2.5841  1.9956  0.0699
 2900WAT      O24698   6.037   0.048   0.092  0.0429  0.3502  0.1998
 2900WAT     H124699   6.057   0.017   0.180  0.7920  1.6615  0.5195
 2900WAT     H224700   6.079  -0.015   0.034  0.6108  0.1667  0.8053
 2901WAT      O24701   6.151   5.459   1.799 -0.5895  1.0865  0.2886
 2901WAT     H124702   6.095   5.398   1.847  0.4535 -0.3249 -0.2111
 2901WAT     H224703   6.093   5.498   1.734 -1.4246  1.0766  1.0098
 2902WAT      O24704   5.697   3.485   1.383  0.1556  0.0781  0.6059
 2902WAT     H124705   5.714   3.529   1.466  0.7088 -2.2908  1.8320
 2902WAT     H224706   5.629   3.420   1.404  0.0101 -0.2951 -0.8909
 2903WAT      O24707   6.086   2.194   1.205  0.0626 -0.5882 -0.1850
 2903WAT     H124708   6.044   2.274   1.174  0.3269 -0.8408 -1.2591
 2903WAT     H224709   6.162   2.224   1.255 -0.7341 -0.1541  0.7729
 2904WAT      O24710   6.116   5.492   6.050  0.1291  0.2740  0.3547
 2904WAT     H124711   6.174   5.532   5.985 -0.7195  0.0065 -0.5940
 2904WAT     H224712   6.035   5.473   6.001  0.2214 -1.9016  0.9396
 2905WAT      O24713   5.595   5.186   0.340  0.2703 -0.6806  0.1528
 2905WAT     H124714   5.682   5.177   0.302 -0.3954 -0.8574 -1.3825
 2905WAT     H224715   5.547   5.109   0.308 -1.2307  0.7817 -1.2497
 2906WAT      O24716   0.836   5.824   5.775  0.6014  0.3177 -0.5963
 2906WAT     H124717   0.919   5.835   5.729  1.3242 -1.9814  0.0337
 2906WAT     H224718   0.783   5.769   5.718  0.6162 -0.5913  0.2337
 2907WAT      O24719   3.234   1.116   1.603 -0.6238 -0.1534  0.3341
 2907WAT     H124720   3.194   1.108   1.690 -1.2389 -0.8069  0.0017
 2907WAT     H224721   3.217   1.206   1.577 -3.6191 -0.8916 -0.6043
 2908WAT      O24722   0.511   5.270   5.391 -0.3333  0.0279 -0.2407
 2908WAT     H124723   0.549   5.342   5.442  0.2449  0.2348 -0.9455
 2908WAT     H224724   0.587   5.226   5.352 -0.6291 -1.2699  0.5614
 2909WAT      O24725   4.326   3.591   6.118 -0.4441  0.4361  0.6328
 2909WAT     H124726   4.401   3.534   6.130 -0.8602  0.0320  1.3863
 2909WAT     H224727   4.296   3.572   6.029  1.5194  2.0687 -0.4722
 2910WAT      O24728   4.194   0.707   0.104 -0.3531 -0.1119 -0.0327
 2910WAT     H124729   4.156   0.725   0.190  2.6297 -0.8095  1.5836
 2910WAT     H224730   4.285   0.738   0.112  0.3480 -1.2779 -2.5352
 2911WAT      O24731   2.579   5.051   0.130 -0.0353  0.1494  0.3968
 2911WAT     H124732   2.554   5.136   0.168 -1.0047  0.8411 -1.6547
 2911WAT     H224733   2.543   5.053   0.042 -0.3966 -2.5655  0.4020
 2912WAT      O24734   3.764   4.401   7.266 -0.2983 -0.4397 -0.4611
 2912WAT     H124735   3.844   4.453   7.272  0.6412 -1.6199 -1.9203
 2912WAT     H224736   3.780   4.342   7.192 -1.9261 -1.7457  0.1815
 2913WAT      O24737   3.957   4.563   6.680 -0.1269  0.4647 -0.6210
 2913WAT     H124738   3.971   4.658   6.679 -0.6852  0.5608 -1.9188
 2913WAT     H224739   3.926   4.543   6.592  3.9426 -1.5156 -1.8782
 2914WAT      O24740   2.303   2.215   6.201  0.0588 -0.1262 -0.6391
 2914WAT     H124741   2.345   2.272   6.136 -0.7398 -0.9096 -1.8860
 2914WAT     H224742   2.268   2.142   6.149 -0.6555 -0.7462  0.6775
 2915WAT      O24743   1.241   0.854   6.900  0.0425 -0.6360 -0.1015
 2915WAT     H124744   1.214   0.940   6.932  0.0260 -1.0579  1.0780
 2915WAT     H224745   1.208   0.851   6.810 -0.0686  0.5303 -0.1228
 2916WAT      O24746   1.957   4.783   7.643 -0.8314  0.0047  0.3774
 2916WAT     H124747   1.941   4.851   7.707  0.8290 -0.1579  1.0221
 2916WAT     H224748   2.007   4.827   7.574 -1.0125 -0.2321  0.0935
 2917WAT      O24749   4.847   2.363   1.428 -0.0635  0.2847  0.5864
 2917WAT     H124750   4.786   2.296   1.458  0.3189 -0.6982 -0.7265
 2917WAT     H224751   4.791   2.433   1.396 -0.5377 -0.4974 -0.3664
 2918WAT      O24752   1.882   5.533   2.091 -0.0879 -0.1148  0.3918
 2918WAT     H124753   1.820   5.489   2.148 -0.1830 -0.1696  0.2459
 2918WAT     H224754   1.968   5.510   2.126 -0.1724  1.2139  1.5492
 2919WAT      O24755   5.719   1.816   7.141 -0.4539  0.0796 -0.4392
 2919WAT     H124756   5.740   1.817   7.047 -1.8431 -1.0102 -0.7852
 2919WAT     H224757   5.749   1.730   7.171 -0.0031  0.4296  0.1351
 2920WAT      O24758   0.936   0.867   6.746 -0.5244 -0.5160  0.4628
 2920WAT     H124759   0.977   0.874   6.660 -2.0064 -1.4120 -0.3757
 2920WAT     H224760   0.869   0.935   6.746 -0.9445 -0.9203  0.6350
 2921WAT      O24761   1.461   4.667   1.660 -0.3343  0.5585 -0.1959
 2921WAT     H124762   1.556   4.670   1.658 -0.3659  1.3600 -0.5194
 2921WAT     H224763   1.437   4.621   1.579 -0.1368 -2.5911  1.3596
 2922WAT      O24764   2.889   0.945   5.882  0.6567  0.0581 -0.1910
 2922WAT     H124765   2.818   0.881   5.884  1.0733 -0.7934 -4.1821
 2922WAT     H224766   2.954   0.911   5.943 -0.4357 -1.6665  0.0892
 2923WAT      O24767   3.707   0.501   6.986  0.1022 -0.2496 -0.2522
 2923WAT     H124768   3.700   0.432   7.052 -4.4184 -1.7932 -1.9868
 2923WAT     H224769   3.734   0.455   6.906  0.2542  0.5897 -0.6917
 2924WAT      O24770   4.056   4.147   5.633 -0.1117  0.3460 -0.1525
 2924WAT     H124771   4.010   4.099   5.702  0.9250  1.5886  1.4979
 2924WAT     H224772   4.130   4.091   5.609 -1.2567 -0.7234 -1.3245
 2925WAT      O24773   4.556   3.983   7.712 -0.1499 -0.0416 -0.2771
 2925WAT     H124774   4.557   4.064   7.763 -0.6878 -0.2241  0.0284
 2925WAT     H224775   4.578   4.011   7.623 -2.2699  0.7586 -0.6042
 2926WAT      O24776   0.222   1.170   6.045 -0.2909  0.3659 -0.2092
 2926WAT     H124777   0.209   1.077   6.063 -0.2870  0.4517  0.2596
 2926WAT     H224778   0.318   1.181   6.042 -0.2684  0.4867  0.5193
 2927WAT      O24779   0.120   5.397   7.038  0.5719 -0.1737 -0.1836
 2927WAT     H124780   0.140   5.371   6.948 -1.1637  2.5141 -1.4604
 2927WAT     H224781   0.034   5.439   7.033  0.5951  0.4308  2.6880
 2928WAT      O24782   1.401   6.227   0.699  0.0200 -0.3883 -0.5616
 2928WAT     H124783   1.453   6.290   0.649  0.3331  1.5212  1.9512
 2928WAT     H224784   1.310   6.245   0.674  0.1177  1.0195 -0.0202
 2929WAT      O24785   4.287   5.057   2.068  0.2759  0.1045 -0.6062
 2929WAT     H124786   4.260   5.132   2.120 -0.1731 -0.2947 -0.2533
 2929WAT     H224787   4.209   5.003   2.061  0.8960 -0.9639  0.2467
 2930WAT      O24788   2.319   4.700   7.195  0.1797  0.2675  0.5376
 2930WAT     H124789   2.389   4.765   7.186  0.5115  0.2626  2.5834
 2930WAT     H224790   2.238   4.749   7.180  0.5332  0.5465 -0.5760
 2931WAT      O24791   0.191   0.484   0.476 -0.1715  1.1697 -0.2908
 2931WAT     H124792   0.141   0.540   0.416 -0.5978  1.7538  0.5881
 2931WAT     H224793   0.173   0.521   0.563  0.2393  0.1838  0.2185
 2932WAT      O24794   0.919   0.784   6.124  0.4331  0.1975 -0.2334
 2932WAT     H124795   0.978   0.771   6.049  1.9034 -1.1788  1.0938
 2932WAT     H224796   0.881   0.871   6.109  1.3360  0.3195 -2.1216
 2933WAT      O24797   1.134   1.142   0.410  0.3573 -0.1090 -0.6454
 2933WAT     H124798   1.073   1.135   0.483  0.0754  1.1257 -0.7325
 2933WAT     H224799   1.080   1.123   0.333  0.3583 -0.1992 -0.6231
 2934WAT      O24800   5.169   3.076   0.039  0.4283  0.3579 -0.3071
 2934WAT     H124801   5.235   3.125  -0.011  1.5002 -0.2713  0.4430
 2934WAT     H224802   5.220   3.016   0.093 -0.8267 -1.0938 -0.6725
 2935WAT      O24803   3.878   3.117   1.183  0.3044 -0.3370  0.3344
 2935WAT     H124804   3.867   3.205   1.147  0.3576  0.0968  1.3262
 2935WAT     H224805   3.959   3.121   1.233  0.7512 -1.2025 -0.2979
 2936WAT      O24806   1.694   5.015   1.476  0.5525  0.1168  0.3059
 2936WAT     H124807   1.688   5.000   1.570  2.5932 -2.1134  0.1880
 2936WAT     H224808   1.680   4.929   1.437  0.4436  0.8733 -1.4057
 2937WAT      O24809   4.729   3.023   7.158 -0.3635  0.5512 -0.4509
 2937WAT     H124810   4.705   2.933   7.180  0.8180  0.3217 -0.0334
 2937WAT     H224811   4.687   3.039   7.073 -1.5935  0.0413  0.0479
 2938WAT      O24812   2.406   4.466   1.248 -0.4243  0.0654  0.1012
 2938WAT     H124813   2.423   4.557   1.224 -0.3948 -0.0885 -0.4791
 2938WAT     H224814   2.375   4.425   1.167  1.6122 -0.9461 -0.2395
 2939WAT      O24815   5.977   5.551   0.017 -0.1693 -0.0459 -0.2736
 2939WAT     H124816   5.971   5.461   0.049  1.6461 -0.6192 -1.3847
 2939WAT     H224817   6.016   5.542  -0.071 -0.3806  1.7921 -0.5847
 2940WAT      O24818   0.600   0.955   6.453 -0.1480  0.4474  0.2919
 2940WAT     H124819   0.659   0.990   6.520 -0.3715 -0.4709  0.9933
 2940WAT     H224820   0.535   0.905   6.503  1.3764 -2.7776 -0.6909
 2941WAT      O24821   5.487   5.209   1.380  0.2250 -0.3567 -0.8262
 2941WAT     H124822   5.503   5.119   1.409 -0.3935  0.3957  2.1898
 2941WAT     H224823   5.571   5.238   1.345  1.2705 -1.2218  0.8328
 2942WAT      O24824   5.826   2.394   6.038 -0.3102 -0.2773 -0.0254
 2942WAT     H124825   5.740   2.405   5.997 -0.7120 -0.4960  0.7337
 2942WAT     H224826   5.881   2.358   5.968 -1.1995 -1.4837 -0.1357
 2943WAT      O24827   4.904   5.330   2.418  0.1270 -0.2542 -0.7247
 2943WAT     H124828   4.974   5.394   2.405  0.5968 -0.4715  0.5749
 2943WAT     H224829   4.826   5.383   2.433  0.5709  0.0578  0.6530
 2944WAT      O24830   1.171   2.590   5.837 -0.4469  0.4653 -0.3592
 2944WAT     H124831   1.210   2.548   5.760  0.8752  1.3867 -0.2262
 2944WAT     H224832   1.196   2.682   5.829  2.8293  0.1063  2.9091
 2945WAT      O24833   6.173   4.471   6.445 -0.4067 -0.0086  0.7392
 2945WAT     H124834   6.209   4.528   6.377  0.8607  0.3936  1.7059
 2945WAT     H224835   6.079   4.479   6.436 -0.4356 -2.0012 -2.6849
 2946WAT      O24836   1.148   0.221   0.820 -0.4453 -0.0909 -0.1410
 2946WAT     H124837   1.148   0.208   0.725  1.2890  1.4387 -0.4097
 2946WAT     H224838   1.102   0.305   0.832 -0.0256  0.0782  0.2927
 2947WAT      O24839   5.830   0.268   6.589 -0.3875  0.1771 -0.2238
 2947WAT     H124840   5.854   0.355   6.620  0.8775 -0.0377 -0.5711
 2947WAT     H224841   5.814   0.278   6.495 -1.3497  0.2383 -0.0714
 2948WAT      O24842   3.132   0.702   0.945  0.0062  0.1305 -1.0405
 2948WAT     H124843   3.101   0.682   1.034  0.5357 -2.1019 -1.2894
 2948WAT     H224844   3.227   0.695   0.951  0.0877  0.7798 -1.6080
 2949WAT      O24845   4.874   0.094   0.573 -0.1923  0.4291  0.0549
 2949WAT     H124846   4.942   0.057   0.516  0.8360  0.2169  1.3687
 2949WAT     H224847   4.829   0.018   0.609 -0.1398  0.5367  0.3469
 2950WAT      O24848   2.964   0.616   0.284  0.0423 -0.0699  0.7817
 2950WAT     H124849   2.936   0.669   0.209 -2.1601  1.8209  2.7497
 2950WAT     H224850   2.921   0.657   0.359  1.3160 -2.4646  2.9833
 2951WAT      O24851   5.863  -0.001   6.681  0.0224 -0.0214  0.0732
 2951WAT     H124852   5.840   0.085   6.646  2.4591  0.7037  0.0387
 2951WAT     H224853   5.823  -0.003   6.767  0.0415  1.2320  0.1351
 2952WAT      O24854   5.098   4.053   6.428 -0.3922  0.0224 -0.1937
 2952WAT     H124855   5.129   3.997   6.357  1.3316 -0.7965  1.1109
 2952WAT     H224856   5.081   3.992   6.501 -0.5375  0.9816  0.5955
 2953WAT      O24857   0.647   5.210   1.821 -0.1538 -0.0753 -0.9652
 2953WAT     H124858   0.556   5.190   1.844  0.3198 -1.4297 -0.1367
 2953WAT     H224859   0.699   5.159   1.883  1.1896 -0.2473 -2.1817
 2954WAT      O24860   4.516   0.985   0.607  0.8420  0.3319 -0.6169
 2954WAT     H124861   4.568   0.944   0.676 -0.0699 -0.5173 -0.3984
 2954WAT     H224862   4.529   0.928   0.531  0.1194  0.0049 -0.5096
 2955WAT      O24863   0.848   2.990   1.964 -0.3479  0.1751  0.3991
 2955WAT     H124864   0.806   2.914   2.004  2.6146 -1.0744  1.3522
 2955WAT     H224865   0.885   2.957   1.882  1.3782  0.4051  1.0460
 2956WAT      O24866   0.845   0.864   1.450 -0.1393 -0.4597 -0.0633
 2956WAT     H124867   0.806   0.894   1.532  1.3377  1.3277  0.0591
 2956WAT     H224868   0.909   0.798   1.476 -1.2863 -1.5819 -0.0289
 2957WAT      O24869   3.797   3.678   6.057 -0.0164  1.0229  0.1772
 2957WAT     H124870   3.757   3.634   5.982  0.0259  0.6080  0.3915
 2957WAT     H224871   3.742   3.652   6.131  1.2359 -0.4236  0.6562
 2958WAT      O24872   5.850   1.037   1.606  0.5310  0.1392 -0.2527
 2958WAT     H124873   5.865   0.976   1.679  0.5006 -0.7018 -0.9420
 2958WAT     H224874   5.837   1.122   1.649 -1.7921 -0.7166  0.8951
 2959WAT      O24875   2.875   1.951   7.030 -0.1586  0.3197  0.3507
 2959WAT     H124876   2.849   2.031   6.983  0.2788  1.1899  1.5266
 2959WAT     H224877   2.844   1.966   7.120 -0.0782 -0.8534  0.5797
 2960WAT      O24878   0.851   0.145   0.748  0.3031  0.6391  0.0038
 2960WAT     H124879   0.922   0.178   0.803  0.3838  0.9822 -0.2971
 2960WAT     H224880   0.786   0.216   0.749  0.8709  1.2191 -1.3853
 2961WAT      O24881   3.700   0.678   7.581  0.1657 -0.6918  0.2838
 2961WAT     H124882   3.648   0.688   7.502  1.7970 -0.2642 -0.7825
 2961WAT     H224883   3.660   0.738   7.644  0.2152  0.6936 -0.9681
 2962WAT      O24884   1.584   4.304   0.173  0.4873 -0.3302  0.0686
 2962WAT     H124885   1.621   4.229   0.220 -0.3638 -1.2205 -0.6643
 2962WAT     H224886   1.575   4.274   0.082  1.6024  1.1808 -0.5936
 2963WAT      O24887   5.058   1.737   7.814 -0.1743 -0.2378  0.3356
 2963WAT     H124888   5.088   1.800   7.749 -0.2970  1.4133  1.7922
 2963WAT     H224889   5.091   1.772   7.897 -0.2771 -2.0968  1.2108
 2964WAT      O24890   0.259   6.219   5.663  0.1426 -0.6071  0.4550
 2964WAT     H124891   0.189   6.166   5.701 -0.6320 -0.3869 -0.6302
 2964WAT     H224892   0.291   6.166   5.590  0.1710 -0.0915  0.0953
 2965WAT      O24893   5.988   5.903   1.373 -0.3027  0.0782 -0.3727
 2965WAT     H124894   5.896   5.888   1.352 -0.1201  0.1633 -1.2599
 2965WAT     H224895   6.036   5.847   1.312  0.2663  0.9718 -0.7537
 2966WAT      O24896   5.777   3.909   0.455  0.4533  0.3372  0.4221
 2966WAT     H124897   5.850   3.862   0.414 -0.9577  0.0409 -1.9594
 2966WAT     H224898   5.700   3.879   0.406 -1.0349  1.9933  1.6520
 2967WAT      O24899   3.073   2.206   7.821 -0.3637 -0.1650  0.2705
 2967WAT     H124900   2.992   2.166   7.853  0.1049  0.2061  2.0263
 2967WAT     H224901   3.058   2.300   7.831 -0.0323 -0.0566 -0.2337
 2968WAT      O24902   3.161   1.034   7.120  0.0914  0.5353  0.0674
 2968WAT     H124903   3.225   1.103   7.140  0.1149  0.3427  0.6886
 2968WAT     H224904   3.122   1.061   7.037  1.3622  0.3750 -0.6196
 2969WAT      O24905   0.729   3.244   1.943  0.3435  0.2341  0.9134
 2969WAT     H124906   0.706   3.165   1.991 -1.4551  1.3510  2.0273
 2969WAT     H224907   0.821   3.233   1.919  0.6110 -1.4127  2.5497
 2970WAT      O24908   2.241   3.116   1.439 -0.3851  0.1498  0.4837
 2970WAT     H124909   2.301   3.190   1.430  2.9591 -2.3407  0.8646
 2970WAT     H224910   2.230   3.083   1.350  0.4763 -0.6265  0.6635
 2971WAT      O24911   2.444   3.079   0.927 -0.1213  0.8879 -0.1268
 2971WAT     H124912   2.376   3.013   0.922  0.7796 -0.1584  0.9073
 2971WAT     H224913   2.476   3.088   0.837  0.0133 -0.3891 -0.2228
 2972WAT      O24914   1.365   5.160   6.470 -0.0750  0.3580  0.8990
 2972WAT     H124915   1.368   5.102   6.394 -0.5603  1.2448  0.1851
 2972WAT     H224916   1.318   5.110   6.537  0.9267 -0.6776  0.8452
 2973WAT      O24917   5.093   0.957   7.465 -0.2307 -0.0113 -0.2443
 2973WAT     H124918   5.014   0.991   7.421 -0.2206  0.5802  0.1804
 2973WAT     H224919   5.068   0.953   7.557 -0.2908 -1.3641 -0.3002
 2974WAT      O24920   5.950   2.446   0.626  0.2664  0.2037 -0.4729
 2974WAT     H124921   5.860   2.443   0.659  0.4692  0.6877  0.1401
 2974WAT     H224922   5.969   2.356   0.600  0.0152 -0.1423  0.5000
 2975WAT      O24923   4.274   2.938   6.085  0.1236 -0.4380 -0.1636
 2975WAT     H124924   4.369   2.931   6.090  0.0850 -3.3649 -1.7132
 2975WAT     H224925   4.254   2.929   5.992 -1.6389  1.8405 -0.1002
 2976WAT      O24926   4.054   2.342   7.795 -0.2109 -0.4743 -0.5435
 2976WAT     H124927   4.110   2.364   7.870 -1.7282 -1.1894  0.8857
 2976WAT     H224928   3.983   2.407   7.797 -0.5532 -0.8206 -1.0235
 2977WAT      O24929   4.850   4.356   6.434 -0.4168  0.2559 -0.6240
 2977WAT     H124930   4.937   4.354   6.395  0.5155 -1.0272  1.3485
 2977WAT     H224931   4.820   4.265   6.431 -0.7799  0.3174  0.5961
 2978WAT      O24932   4.233   6.185   6.729  0.2290 -0.3691  0.1589
 2978WAT     H124933   4.274   6.136   6.657  1.1663  1.4025 -0.5827
 2978WAT     H224934   4.288   6.263   6.739  0.2200 -0.6122  2.9403
 2979WAT      O24935   1.513   3.510   0.845 -0.2488 -0.9030  0.2993
 2979WAT     H124936   1.475   3.597   0.858 -0.7134 -0.9723 -0.5427
 2979WAT     H224937   1.458   3.452   0.897 -1.7265 -1.0972 -1.4251
 2980WAT      O24938   5.911   5.366   6.577 -0.2018 -0.0816 -0.1505
 2980WAT     H124939   5.926   5.336   6.487  0.1178 -0.4434  0.0197
 2980WAT     H224940   5.995   5.356   6.620  0.2868  2.3666 -0.4183
 2981WAT      O24941   3.016   5.159   7.085 -0.4675  0.1158  0.1967
 2981WAT     H124942   3.009   5.065   7.101 -0.0157  0.1913  0.9334
 2981WAT     H224943   2.926   5.189   7.071 -0.6587 -0.3588  0.3990
 2982WAT      O24944   4.207   0.423   1.528 -0.1203  0.1033  0.4225
 2982WAT     H124945   4.269   0.407   1.457  1.5166  1.2235  1.5432
 2982WAT     H224946   4.260   0.458   1.599 -2.0422  1.0492  1.4645
 2983WAT      O24947   4.199   1.250   1.542 -0.0170  0.1730  0.2229
 2983WAT     H124948   4.133   1.249   1.472  1.5227 -0.8180 -1.2976
 2983WAT     H224949   4.232   1.340   1.543  0.2394  0.0939 -0.6238
 2984WAT      O24950   3.396   5.088   1.840 -0.8367 -0.2660 -0.0867
 2984WAT     H124951   3.346   5.057   1.764 -2.3183  0.1533  0.6616
 2984WAT     H224952   3.329   5.118   1.901  0.3726  0.6727  0.8379
 2985WAT      O24953   2.024   4.643   0.729  0.2591 -0.5711  0.0271
 2985WAT     H124954   1.937   4.617   0.759  0.4564 -0.5359  0.6364
 2985WAT     H224955   2.075   4.563   0.728 -0.0056 -0.7545 -1.1780
 2986WAT      O24956   6.084   3.313   0.860  0.0773 -0.6125  0.3756
 2986WAT     H124957   6.115   3.402   0.848  2.7611 -1.3971  0.9697
 2986WAT     H224958   6.056   3.309   0.952  1.4591 -0.7772  0.8036
 2987WAT      O24959   3.439   2.318   6.529  0.0234  0.2637 -0.2628
 2987WAT     H124960   3.445   2.410   6.554 -0.7812  0.6805 -1.4908
 2987WAT     H224961   3.420   2.272   6.610  0.1008  1.2165  0.3125
 2988WAT      O24962   5.530   3.881   1.069  0.4354 -0.0873  0.0032
 2988WAT     H124963   5.529   3.877   1.165 -0.9323  0.2618  0.0320
 2988WAT     H224964   5.547   3.973   1.049 -2.7859  0.6422  0.0326
 2989WAT      O24965   3.990   5.460   1.106 -0.1110  0.0915 -0.0421
 2989WAT     H124966   4.000   5.439   1.199 -0.3456 -0.2217 -0.0838
 2989WAT     H224967   4.075   5.437   1.068  0.2657  0.9888  0.2254
 2990WAT      O24968   4.554   1.178   7.908  0.5387 -0.1468 -0.2963
 2990WAT     H124969   4.537   1.144   7.820  0.2220  0.7466 -0.5925
 2990WAT     H224970   4.473   1.162   7.955 -0.6497  2.5305 -1.2073
 2991WAT      O24971   6.151   2.059   6.338  0.2331  0.7462  0.6358
 2991WAT     H124972   6.088   1.990   6.316  1.1861 -0.4622  1.5772
 2991WAT     H224973   6.236   2.023   6.314  0.5908  2.5850 -1.1720
 2992WAT      O24974   6.135   4.954   1.963 -0.1175  0.2305  0.8643
 2992WAT     H124975   6.081   4.875   1.966 -0.7869  0.7109  2.1246
 2992WAT     H224976   6.108   4.999   1.883  1.8141 -1.8191 -1.1011
 2993WAT      O24977   3.431   5.652   7.615  0.4395 -0.0913  0.3632
 2993WAT     H124978   3.426   5.718   7.547 -0.0235 -0.2219  0.2611
 2993WAT     H224979   3.345   5.655   7.657  0.7077 -0.0410  0.9117
 2994WAT      O24980   3.323   1.644   5.827 -0.6032  0.2354  0.4676
 2994WAT     H124981   3.278   1.612   5.906  1.4584 -1.4014  1.0643
 2994WAT     H224982   3.306   1.577   5.761 -2.8687  1.9183 -0.7692
 2995WAT      O24983   4.288   3.080   6.313  0.0513 -0.0521 -0.7233
 2995WAT     H124984   4.274   3.034   6.230 -0.2791 -0.8028 -0.2567
 2995WAT     H224985   4.318   3.167   6.287 -0.3062 -0.1934 -1.6342
 2996WAT      O24986   0.935   5.895   7.927  0.0033 -0.5479 -0.2005
 2996WAT     H124987   0.887   5.839   7.866 -0.6480 -1.1637  0.8573
 2996WAT     H224988   1.003   5.935   7.873 -1.8036  0.5416 -1.8094
 2997WAT      O24989   2.212   3.751   7.025  0.2397  0.2413 -0.4724
 2997WAT     H124990   2.121   3.725   7.036  0.4027  0.0443  0.4921
 2997WAT     H224991   2.213   3.804   6.945 -0.5271 -0.6386 -1.0884
 2998WAT      O24992   2.097   5.987   1.708  0.1470  0.0279  0.4124
 2998WAT     H124993   2.158   5.942   1.766  0.9731 -0.9553 -1.1634
 2998WAT     H224994   2.017   5.994   1.759  1.0570 -0.1238  1.9396
 2999WAT      O24995   3.841   2.877   0.784  0.0249 -0.3006 -0.1278
 2999WAT     H124996   3.864   2.891   0.876 -0.5593 -0.3480  0.0310
 2999WAT     H224997   3.765   2.933   0.769 -0.3449 -0.8464 -0.3707
 3000WAT      O24998   4.475   2.962   5.825 -0.3956 -0.3907 -0.1333
 3000WAT     H124999   4.499   2.928   5.912 -0.0722  0.9798  0.3531
 3000WAT     H225000   4.396   2.914   5.802  0.6989 -2.3478 -0.0829
 3001WAT      O25001   5.908   2.415   6.914 -0.2449  0.8100  0.0712
 3001WAT     H125002   5.997   2.411   6.950  0.2658 -0.9671 -1.2416
 3001WAT     H225003   5.851   2.407   6.991  0.7502  0.1898  0.7782
 3002WAT      O25004   0.815   3.866   5.246 -0.0052 -0.3755 -0.0757
 3002WAT     H125005   0.898   3.911   5.259 -0.5595  0.1417  2.2107
 3002WAT     H225006   0.762   3.891   5.322 -1.5419 -2.2503 -0.4333
 3003WAT      O25007   5.674   1.422   6.320  0.4563  0.1282 -0.3973
 3003WAT     H125008   5.684   1.330   6.345  0.3298  0.5199  1.2040
 3003WAT     H225009   5.764   1.454   6.310  0.5101 -0.0854 -0.5890
 3004WAT      O25010   0.881   0.649   6.540  0.2775  0.2916  0.2738
 3004WAT     H125011   0.940   0.681   6.608  1.4751  0.5523 -0.8268
 3004WAT     H225012   0.878   0.721   6.476  0.1918 -0.4261 -0.5456
 3005WAT      O25013   5.965   6.062   2.040  0.6368 -0.5923  0.0849
 3005WAT     H125014   5.904   6.062   2.114  0.8209  0.4495  0.2493
 3005WAT     H225015   6.042   6.016   2.073  0.9457  0.3592  0.7570
 3006WAT      O25016   5.368   3.204   7.839  0.3562  0.3679  0.7035
 3006WAT     H125017   5.376   3.296   7.865  0.8363  0.0197  1.8903
 3006WAT     H225018   5.419   3.197   7.758  0.6907  1.0586  0.8487
 3007WAT      O25019   5.863   0.842   7.878 -0.3901 -0.0511 -0.7773
 3007WAT     H125020   5.830   0.922   7.837 -1.5028 -0.5390 -0.8760
 3007WAT     H225021   5.808   0.772   7.842 -0.8948 -0.6026  0.9243
 3008WAT      O25022   3.212   0.587   0.447 -0.4012 -0.0615  0.2026
 3008WAT     H125023   3.122   0.602   0.419  0.1030  0.0962 -1.5144
 3008WAT     H225024   3.222   0.638   0.527 -1.2373  1.6734 -0.7448
 3009WAT      O25025   1.075   4.789   2.348 -0.1879 -0.3460 -0.4177
 3009WAT     H125026   1.138   4.719   2.362 -2.2827 -1.8857  2.2949
 3009WAT     H225027   1.078   4.806   2.254  2.5978 -1.8705 -0.7063
 3010WAT      O25028   5.428   1.715   6.077  0.5113  0.0619 -0.2871
 3010WAT     H125029   5.435   1.709   6.172  0.3686  3.3685  0.0446
 3010WAT     H225030   5.496   1.656   6.044  0.8737 -0.8008  1.8416
 3011WAT      O25031   2.380   1.802   6.316  0.5181 -0.0579 -0.1548
 3011WAT     H125032   2.452   1.865   6.318  1.2403 -0.7999 -1.2830
 3011WAT     H225033   2.330   1.826   6.238 -2.1013  2.1220  2.0088
 3012WAT      O25034   4.781   5.802   0.530  0.0745 -0.0828 -0.2577
 3012WAT     H125035   4.698   5.789   0.577 -1.1298  0.0904 -2.1894
 3012WAT     H225036   4.771   5.749   0.450  2.1004 -0.5447 -0.2487
 3013WAT      O25037   5.248   0.603   0.184  0.0293 -0.4629  0.4857
 3013WAT     H125038   5.342   0.584   0.181  0.0021 -0.5634  0.2673
 3013WAT     H225039   5.234   0.642   0.270  0.3300 -0.1427  0.3902
 3014WAT      O25040   3.275   0.765   0.001  0.4245  0.1440 -0.2863
 3014WAT     H125041   3.274   0.669   0.003  3.3057  0.0434 -0.0526
 3014WAT     H225042   3.294   0.790   0.091  1.6011  0.8179 -0.6967
 3015WAT      O25043   4.326   4.625   6.721 -0.2551 -0.3086  0.6081
 3015WAT     H125044   4.307   4.712   6.686 -1.2417 -0.2208  1.3370
 3015WAT     H225045   4.397   4.592   6.666  0.4078  1.1193  0.5753
 3016WAT      O25046   4.414   6.130   7.876 -0.3691  0.0282  0.5072
 3016WAT     H125047   4.365   6.060   7.833 -0.2158  0.3549 -0.2100
 3016WAT     H225048   4.503   6.096   7.883 -0.5979 -0.4214  1.4860
 3017WAT      O25049   2.304   0.351   0.444 -0.2925  0.0790  0.6689
 3017WAT     H125050   2.250   0.429   0.459 -0.4202  0.4309 -1.3128
 3017WAT     H225051   2.263   0.308   0.369 -1.7719 -3.4000  3.1952
 3018WAT      O25052   4.854   0.224   6.489 -0.0805 -0.7987 -0.0313
 3018WAT     H125053   4.806   0.304   6.469 -1.5946 -1.9366 -1.1760
 3018WAT     H225054   4.891   0.196   6.405  0.1798 -1.4609  0.2944
 3019WAT      O25055   1.373   1.209   6.041 -0.3361  0.6157  0.2286
 3019WAT     H125056   1.381   1.246   5.953 -0.1468  1.4294  0.5854
 3019WAT     H225057   1.444   1.144   6.046  0.3063  1.3001  0.1441
 3020WAT      O25058   1.873   5.624   7.092 -0.4650 -0.1500 -0.8208
 3020WAT     H125059   1.872   5.586   7.004  0.8244 -0.4489 -0.7303
 3020WAT     H225060   1.962   5.607   7.124  0.4373  3.4164 -1.0053
 3021WAT      O25061   2.901   2.142   0.235  0.1012 -0.5395 -0.0922
 3021WAT     H125062   2.846   2.081   0.283  0.6321 -1.3255 -0.4646
 3021WAT     H225063   2.877   2.228   0.270 -0.7637 -0.9380  0.3270
 3022WAT      O25064   0.284   5.811   1.100 -0.1971 -0.0251 -0.3655
 3022WAT     H125065   0.251   5.863   1.026 -0.0764  0.7941  0.1360
 3022WAT     H225066   0.279   5.721   1.070 -0.4866  0.2676 -1.2446
 3023WAT      O25067   3.920   3.462   1.195 -0.2448  0.5293  0.2853
 3023WAT     H125068   3.839   3.458   1.246  0.2298 -0.3091  0.9798
 3023WAT     H225069   3.910   3.394   1.128  0.2866 -0.2364  0.9739
 3024WAT      O25070   5.766   0.026   6.972  0.2149 -0.2885  0.7891
 3024WAT     H125071   5.813  -0.012   7.046  2.8672  0.3636 -0.4506
 3024WAT     H225072   5.721   0.102   7.009  2.7351  0.9456  1.5674
 3025WAT      O25073   5.978   0.613   6.180  0.4218 -0.1074 -0.0309
 3025WAT     H125074   5.931   0.648   6.256 -0.0104 -0.3269 -0.1906
 3025WAT     H225075   6.069   0.609   6.208  0.5078  1.2261 -0.0466
 3026WAT      O25076   2.153   6.203   7.198  0.3320 -0.3553 -0.0943
 3026WAT     H125077   2.067   6.190   7.156 -0.1585  1.2511  0.3631
 3026WAT     H225078   2.183   6.287   7.165  0.9636 -0.1160  1.0624
 3027WAT      O25079   5.889   4.635   7.243  0.5723 -0.2702 -0.4312
 3027WAT     H125080   5.856   4.711   7.290  0.8004 -1.0829  1.1078
 3027WAT     H225081   5.815   4.604   7.191 -0.1126 -0.1435  0.4501
 3028WAT      O25082   0.561   2.944   6.431 -0.4127 -0.1821 -0.5337
 3028WAT     H125083   0.549   2.991   6.349 -1.0913  0.3032 -0.1596
 3028WAT     H225084   0.598   3.009   6.491 -0.2282 -0.4460 -0.3576
 3029WAT      O25085   0.162   0.692   7.922  0.0708  0.8986  0.3561
 3029WAT     H125086   0.139   0.748   7.848  1.3532 -0.9606 -1.5595
 3029WAT     H225087   0.257   0.699   7.929  0.2597 -0.8904  0.1120
 3030WAT      O25088   1.244   0.687   7.657 -0.0764 -1.2734  0.1145
 3030WAT     H125089   1.252   0.592   7.665  0.2809 -1.0940  2.8334
 3030WAT     H225090   1.151   0.704   7.675 -0.2656 -1.1337 -0.9569
 3031WAT      O25091   6.065   0.718   0.937 -0.4437  0.7064  0.1104
 3031WAT     H125092   6.016   0.783   0.986 -0.6225  0.2062  0.6004
 3031WAT     H225093   6.107   0.663   1.004  0.9460  1.2375 -0.2886
 3032WAT      O25094   3.068   4.790   0.721  0.0181 -0.2753 -0.0162
 3032WAT     H125095   3.102   4.878   0.704 -2.4393  0.6158 -0.6007
 3032WAT     H225096   3.139   4.732   0.694  1.0614  1.4766 -1.2582
 3033WAT      O25097   0.539   0.454   0.530 -0.5944  0.0611 -0.5225
 3033WAT     H125098   0.571   0.396   0.462  0.1874  0.4881 -0.5336
 3033WAT     H225099   0.507   0.531   0.483 -0.2379  0.2716 -0.4263
 3034WAT      O25100   4.318   0.606   6.820 -0.6332 -0.8628 -0.0962
 3034WAT     H125101   4.314   0.701   6.820 -0.1121 -0.8343  0.3037
 3034WAT     H225102   4.315   0.582   6.913 -0.9689 -1.2478 -0.2018
 3035WAT      O25103   3.271   0.012   6.875 -0.0924 -0.1204  0.1641
 3035WAT     H125104   3.204   0.009   6.807 -1.7510 -0.3705  1.7371
 3035WAT     H225105   3.223   0.002   6.957  1.4848  2.8930  1.6100
 3036WAT      O25106   0.984   3.288   1.742  0.3843  0.1422  0.3599
 3036WAT     H125107   0.969   3.284   1.647 -0.0522 -0.2943  0.4470
 3036WAT     H225108   1.076   3.263   1.752  0.2330 -0.5237  0.1131
 3037WAT      O25109   3.339   5.041   6.253 -0.4284 -0.3042 -0.0580
 3037WAT     H125110   3.266   4.983   6.232 -0.0189 -2.0563  2.8164
 3037WAT     H225111   3.416   4.995   6.218 -0.3269 -0.3208  0.1903
 3038WAT      O25112   0.312   6.106   7.009 -0.0236  0.2167  0.0336
 3038WAT     H125113   0.340   6.176   7.068  0.8489  0.9400 -1.1846
 3038WAT     H225114   0.358   6.028   7.040  3.5017  1.3361 -1.8296
 3039WAT      O25115   2.988   3.254   7.546  0.1771 -0.0271  0.1892
 3039WAT     H125116   3.062   3.308   7.518 -0.2891  0.3410 -0.3745
 3039WAT     H225117   3.003   3.239   7.639  1.1013 -0.1905  0.0212
 3040WAT      O25118   4.928   3.168   0.762  0.8821 -0.2271  0.1892
 3040WAT     H125119   4.995   3.101   0.780  0.0515 -1.0418  0.3132
 3040WAT     H225120   4.853   3.119   0.729  0.3466  0.6821  0.0225
 3041WAT      O25121   3.277   4.815   1.039  0.0713 -0.3480  0.4671
 3041WAT     H125122   3.211   4.884   1.043 -0.0042 -0.2913 -1.3149
 3041WAT     H225123   3.293   4.793   1.131 -1.8950  0.1352  0.9826
 3042WAT      O25124   6.144   1.112   6.842 -0.1911  0.2185 -0.0215
 3042WAT     H125125   6.207   1.076   6.780 -0.9564  0.0957 -0.7456
 3042WAT     H225126   6.123   1.040   6.901 -2.6746 -1.0383 -2.2136
 3043WAT      O25127   3.846   5.650   7.061 -0.4621  0.2080 -0.3155
 3043WAT     H125128   3.844   5.737   7.023  1.2591 -0.1316 -1.3384
 3043WAT     H225129   3.909   5.602   7.006  0.5216 -0.9418  1.6994
 3044WAT      O25130   0.559   0.075   1.158 -0.5866  0.0138 -0.8113
 3044WAT     H125131   0.588   0.066   1.067  1.9017  0.4409 -0.1554
 3044WAT     H225132   0.599   0.001   1.203  0.7277  1.3761  0.4032
 3045WAT      O25133   6.063   5.340   7.379  0.0714  0.4741 -0.5079
 3045WAT     H125134   6.060   5.267   7.318 -2.3410 -0.2595  0.3415
 3045WAT     H225135   5.983   5.390   7.360 -1.3119 -0.3230  2.5355
 3046WAT      O25136   1.858   4.072   6.592  0.4917 -0.3750  0.1724
 3046WAT     H125137   1.823   4.136   6.529  2.5889  0.1293 -0.5512
 3046WAT     H225138   1.847   3.988   6.549 -0.5180 -0.3233  0.3020
 3047WAT      O25139   5.678   2.078   7.177  0.0617 -0.3649  0.1963
 3047WAT     H125140   5.697   1.985   7.169  0.3543 -0.3584  0.7754
 3047WAT     H225141   5.744   2.111   7.238  0.3984  0.3604 -0.5460
 3048WAT      O25142   4.493   5.358   7.516 -0.4286  0.3663  0.6556
 3048WAT     H125143   4.399   5.370   7.504 -0.7485 -2.7993 -1.3289
 3048WAT     H225144   4.500   5.283   7.575  0.8114  0.1826  0.2999
 3049WAT      O25145   6.015   5.012   1.709  0.0062 -0.2035 -0.1639
 3049WAT     H125146   5.951   4.971   1.768 -0.0081  1.7887  1.3306
 3049WAT     H225147   6.020   4.953   1.634 -3.2114 -0.7541 -0.1137
 3050WAT      O25148   5.699   3.715   0.927 -0.3583 -0.0725  0.2962
 3050WAT     H125149   5.743   3.662   0.993 -1.1953 -2.2261 -0.7830
 3050WAT     H225150   5.638   3.770   0.977 -0.5562 -1.2205  1.3677
 3051WAT      O25151   4.313   1.244   5.640  0.1199  0.2502 -0.2077
 3051WAT     H125152   4.312   1.150   5.624 -0.0952  0.7125 -3.7805
 3051WAT     H225153   4.377   1.278   5.578 -0.6073  2.5692  0.2095
 3052WAT      O25154   0.971   4.343   0.588 -0.5623  0.5525 -0.2189
 3052WAT     H125155   1.039   4.325   0.524 -0.9062  2.3714 -1.1526
 3052WAT     H225156   0.943   4.256   0.619  0.7480 -0.2861 -1.3008
 3053WAT      O25157   0.880   2.023   0.786  0.1258 -0.2697 -0.1981
 3053WAT     H125158   0.956   1.965   0.796 -1.7211 -2.5777  1.8238
 3053WAT     H225159   0.826   1.980   0.720 -0.2964  0.3016 -0.2313
 3054WAT      O25160   6.155   0.883   7.584 -0.1573 -0.0114  0.0401
 3054WAT     H125161   6.230   0.877   7.644  1.4188 -0.0024 -1.8363
 3054WAT     H225162   6.122   0.794   7.578  1.0665 -0.4334 -0.7415
 3055WAT      O25163   4.751   3.487   1.217  0.5236  0.3285 -0.1785
 3055WAT     H125164   4.780   3.578   1.213 -0.1580  0.5361 -0.4299
 3055WAT     H225165   4.819   3.443   1.267  1.8986  0.5660 -1.7500
 3056WAT      O25166   0.082   2.143   1.581  0.6780 -0.1536 -0.2883
 3056WAT     H125167   0.146   2.123   1.512  1.1538 -0.0071  0.1091
 3056WAT     H225168   0.075   2.062   1.631 -1.7703 -1.2125 -2.1485
 3057WAT      O25169   5.464   3.952   7.128  0.0327 -0.7766  0.0306
 3057WAT     H125170   5.475   4.026   7.069  0.6114 -1.3046 -0.5261
 3057WAT     H225171   5.401   3.983   7.193  0.4841  0.3038 -0.0311
 3058WAT      O25172   4.452   5.616   0.255  0.2669  0.4433 -0.2817
 3058WAT     H125173   4.387   5.577   0.313  0.7564 -1.7421 -1.1042
 3058WAT     H225174   4.402   5.642   0.177  0.1662  0.0406 -0.3516
 3059WAT      O25175   0.503   4.185   6.758  0.1187 -0.2647  0.9312
 3059WAT     H125176   0.480   4.278   6.751  0.5771 -0.1726  0.6090
 3059WAT     H225177   0.438   4.140   6.705  1.6374  0.1436 -1.4046
 3060WAT      O25178   4.998   2.684   6.144 -0.1066  0.0035  0.2711
 3060WAT     H125179   5.042   2.739   6.080  1.2133  0.0180  1.1478
 3060WAT     H225180   4.907   2.714   6.143  0.0030  0.3512 -1.1820
 3061WAT      O25181   3.941   0.140   1.157 -0.4777  0.4135  0.7539
 3061WAT     H125182   3.965   0.180   1.240  1.0592  0.3772  0.3648
 3061WAT     H225183   3.997   0.062   1.150 -0.9579  0.1221 -0.0678
 3062WAT      O25184   1.733   3.502   7.784  0.0506  0.3304  0.1041
 3062WAT     H125185   1.770   3.554   7.713 -2.2695 -0.6610 -1.9308
 3062WAT     H225186   1.763   3.413   7.768 -0.6255  0.0662  0.2818
 3063WAT      O25187   4.788   1.796   0.091 -0.5796 -0.1850  0.6578
 3063WAT     H125188   4.879   1.820   0.108 -0.2089  0.0278 -1.3583
 3063WAT     H225189   4.785   1.702   0.108  0.0822 -0.2403  0.5114
 3064WAT      O25190   6.045   1.963   1.302 -0.0271  0.2459  0.0140
 3064WAT     H125191   6.062   2.047   1.260 -0.1147  1.2644  1.9038
 3064WAT     H225192   5.982   1.919   1.244  1.3744  0.6852 -1.9151
 3065WAT      O25193   0.951   0.419   0.836 -0.3311  0.4313 -0.0854
 3065WAT     H125194   0.921   0.428   0.746 -0.4095 -0.2910 -0.1355
 3065WAT     H225195   0.878   0.452   0.889 -0.5173  0.3086 -0.2639
 3066WAT      O25196   5.595   6.179   7.296  0.0321 -0.7208 -0.3230
 3066WAT     H125197   5.561   6.235   7.366 -0.9002 -2.0487  0.3154
 3066WAT     H225198   5.682   6.214   7.278 -0.2389  0.4821  0.5576
 3067WAT      O25199   0.085   0.335   0.861  0.2533  0.1836  0.4033
 3067WAT     H125200   0.119   0.381   0.785 -0.5510  0.1554  0.0173
 3067WAT     H225201   0.092   0.399   0.933 -0.8206  0.9024 -0.1199
 3068WAT      O25202   3.876   5.923   0.190  0.1614 -0.3294 -0.2462
 3068WAT     H125203   3.813   5.895   0.125  0.2870 -1.5602  0.1346
 3068WAT     H225204   3.921   5.998   0.151 -0.5743 -0.3173 -1.0721
 3069WAT      O25205   2.293   0.683   7.217 -0.1627  0.3953  0.0800
 3069WAT     H125206   2.230   0.738   7.171  0.6213  1.8720  0.7108
 3069WAT     H225207   2.284   0.597   7.176 -0.8672  1.1739 -1.4709
 3070WAT      O25208   0.271   5.605   0.101  0.0689  0.7456 -0.1542
 3070WAT     H125209   0.349   5.605   0.157 -0.7054  1.0297  0.9610
 3070WAT     H225210   0.267   5.516   0.067  0.5110  0.5411  0.3063
 3071WAT      O25211   2.957   3.793   7.071  0.8763  0.8649 -0.2404
 3071WAT     H125212   2.914   3.736   7.135  2.3327 -0.5949 -0.4798
 3071WAT     H225213   2.991   3.866   7.122 -0.3808  1.1518  0.2017
 3072WAT      O25214   1.820   4.974   0.608 -0.2502 -0.0910  0.1040
 3072WAT     H125215   1.765   5.034   0.559 -0.0343  1.4929  1.6967
 3072WAT     H225216   1.874   4.931   0.542 -1.1558  0.6811 -1.1811
 3073WAT      O25217   2.961   4.434   7.385  0.5120 -0.0743  0.2039
 3073WAT     H125218   2.963   4.507   7.447  0.7520  0.6555 -0.6474
 3073WAT     H225219   3.018   4.461   7.314 -1.1974 -0.0918 -1.2358
 3074WAT      O25220   6.012   3.920   7.030  0.1816  0.5621 -0.3765
 3074WAT     H125221   6.099   3.940   6.996  0.2317  0.2683 -0.4267
 3074WAT     H225222   5.951   3.966   6.972  0.3171  1.0756 -0.1193
 3075WAT      O25223   4.558   5.171   0.059  0.0935 -0.0627  0.1910
 3075WAT     H125224   4.529   5.091   0.016 -1.7118  0.7052 -0.1352
 3075WAT     H225225   4.526   5.163   0.149 -1.3568  0.8479 -0.2029
 3076WAT      O25226   0.345   5.748   0.668  0.3295 -0.8294  0.0806
 3076WAT     H125227   0.409   5.682   0.694 -0.3494 -1.7121 -0.4324
 3076WAT     H225228   0.313   5.718   0.583 -1.7490 -1.1429  0.9377
 3077WAT      O25229   2.706   2.471   0.241 -0.7308 -0.3728  0.3158
 3077WAT     H125230   2.623   2.515   0.260 -0.4779 -0.4353  1.6281
 3077WAT     H225231   2.730   2.428   0.323  0.3667 -0.7494 -0.1859
 3078WAT      O25232   1.343   4.651   6.477  0.2429 -0.0833  0.0003
 3078WAT     H125233   1.345   4.722   6.413 -1.7161  0.3186  0.3370
 3078WAT     H225234   1.381   4.689   6.556 -0.5621  0.5326  0.1030
 3079WAT      O25235   1.111   3.085   7.012 -0.1119 -0.2414 -0.1059
 3079WAT     H125236   1.077   3.155   6.957  1.3070 -0.0139 -0.7416
 3079WAT     H225237   1.138   3.128   7.093 -0.4970 -0.2798  0.0444
 3080WAT      O25238   2.106   1.647   7.937 -0.6605  0.1110 -0.5293
 3080WAT     H125239   2.046   1.598   7.993  1.0915 -0.1285  1.2383
 3080WAT     H225240   2.176   1.586   7.917  0.8795  1.4311  0.5748
 3081WAT      O25241   4.998   0.653   0.949 -0.2286 -0.6497 -0.4900
 3081WAT     H125242   5.049   0.577   0.975  0.3999  0.1814  0.8655
 3081WAT     H225243   5.062   0.725   0.947 -1.3312  0.4863  1.5536
 3082WAT      O25244   1.826   1.512   0.998 -0.1942 -0.7610  0.1665
 3082WAT     H125245   1.833   1.606   0.981  0.5687 -1.0392 -1.1557
 3082WAT     H225246   1.758   1.505   1.066  0.6913  0.8315  1.2891
 3083WAT      O25247   4.917   5.410   7.016 -0.1082 -0.9378  0.1031
 3083WAT     H125248   4.891   5.469   7.087 -0.6771 -0.3323 -0.5902
 3083WAT     H225249   4.986   5.458   6.969  0.9921 -1.7582  0.8297
 3084WAT      O25250   0.147   1.932   6.235  0.0877 -1.0002  0.3599
 3084WAT     H125251   0.192   1.882   6.303 -0.0896 -0.0451  1.2019
 3084WAT     H225252   0.134   1.869   6.164  0.1458 -2.0649  1.2604
 3085WAT      O25253   2.518   4.283   5.822  0.3772 -0.2491  0.5330
 3085WAT     H125254   2.455   4.346   5.854  0.3816  1.8970 -3.1980
 3085WAT     H225255   2.466   4.216   5.777  0.5903 -0.2694  0.3104
 3086WAT      O25256   1.462   3.522   7.669 -0.5259  0.6429  0.4213
 3086WAT     H125257   1.482   3.446   7.614 -0.9813  1.2620 -0.6361
 3086WAT     H225258   1.546   3.546   7.709 -0.0995  0.4174 -0.3157
 3087WAT      O25259   3.463   3.144   0.973 -0.1042  0.2436  0.5063
 3087WAT     H125260   3.423   3.204   1.035  0.8104  0.0096  1.3469
 3087WAT     H225261   3.533   3.101   1.022  0.6779  0.0805 -0.6876
 3088WAT      O25262   0.811   2.200   7.702 -0.1755  0.0197  0.3331
 3088WAT     H125263   0.722   2.211   7.669 -0.4113  0.0787  0.9623
 3088WAT     H225264   0.862   2.266   7.655 -0.2372 -0.7521 -0.8368
 3089WAT      O25265   6.116   0.411   7.510  0.0838 -0.0912  0.1276
 3089WAT     H125266   6.082   0.500   7.505 -0.4178 -0.3372 -1.4202
 3089WAT     H225267   6.164   0.398   7.428  0.0991 -1.2540  0.3013
 3090WAT      O25268   3.530   4.848   7.755  0.7420  0.2501  0.2212
 3090WAT     H125269   3.488   4.884   7.677 -0.4191 -2.3289 -0.4649
 3090WAT     H225270   3.534   4.921   7.816 -2.4135  1.3359 -0.6535
 3091WAT      O25271   1.574   3.097   6.066  0.2708 -0.1512 -0.0050
 3091WAT     H125272   1.587   3.007   6.097  2.8014  0.4115  0.7598
 3091WAT     H225273   1.538   3.144   6.141 -1.0106 -0.4803 -0.3906
 3092WAT      O25274   4.192   4.189   0.592 -0.2375  0.6767  0.7735
 3092WAT     H125275   4.131   4.163   0.661  0.2978 -0.9453  0.6887
 3092WAT     H225276   4.278   4.188   0.635  0.0550  0.0158  0.2031
 3093WAT      O25277   2.369   0.513   1.327  0.1069  0.3868  0.3569
 3093WAT     H125278   2.386   0.480   1.239  0.1004 -1.5660  1.0422
 3093WAT     H225279   2.276   0.498   1.341  0.2152  0.1883  0.8767
 3094WAT      O25280   5.222   3.209   0.662  0.3374 -0.2048 -0.1251
 3094WAT     H125281   5.238   3.300   0.686 -0.4685 -0.4868  1.6759
 3094WAT     H225282   5.187   3.213   0.573  0.1585  1.2536 -0.0117
 3095WAT      O25283   0.661   3.230   7.934 -0.2274 -0.0542 -0.4078
 3095WAT     H125284   0.641   3.159   7.995 -0.9350  0.0331 -0.5305
 3095WAT     H225285   0.603   3.301   7.960  1.5608  1.0848  0.7374
 3096WAT      O25286   0.620   5.919   0.378  0.0039  0.7904  0.0278
 3096WAT     H125287   0.546   5.858   0.386 -0.5660  1.6302  1.7368
 3096WAT     H225288   0.631   5.931   0.284 -1.4424 -0.0892 -0.2879
 3097WAT      O25289   6.189   4.962   1.072  0.3454 -0.0388  0.1623
 3097WAT     H125290   6.263   4.945   1.130 -0.6789 -1.1070  1.1923
 3097WAT     H225291   6.206   4.908   0.995  1.9523  1.7404 -0.8199
 3098WAT      O25292   2.011   3.376   7.451 -0.6631  0.2971  0.0633
 3098WAT     H125293   1.920   3.388   7.422 -0.6882 -0.2894 -0.1252
 3098WAT     H225294   2.060   3.361   7.370 -0.1195  2.1499  0.0157
 3099WAT      O25295   3.584   1.020   0.770 -0.5089  0.1024 -0.2386
 3099WAT     H125296   3.625   1.053   0.690 -0.4565  0.3794 -0.1001
 3099WAT     H225297   3.606   1.086   0.836 -0.1930 -0.3400  0.0989
 3100WAT      O25298   4.186   4.815   6.035 -0.4433  0.5509 -0.7358
 3100WAT     H125299   4.260   4.843   6.089 -1.6503  2.4996  0.0289
 3100WAT     H225300   4.225   4.793   5.951  1.1885 -0.1536  0.1569
 3101WAT      O25301   2.837   0.413   2.220  0.6703  0.0577  0.6389
 3101WAT     H125302   2.927   0.446   2.215 -0.3765  3.1734 -0.4438
 3101WAT     H225303   2.792   0.458   2.148 -1.8373 -1.0882  1.4020
 3102WAT      O25304   5.879   2.260   0.310 -0.1510  0.3380  0.2336
 3102WAT     H125305   5.952   2.311   0.277 -0.0215  0.1670  0.2542
 3102WAT     H225306   5.911   2.222   0.392 -0.4190  0.6372  0.4809
 3103WAT      O25307   3.414   5.325   0.683 -0.0183  0.1845  0.6649
 3103WAT     H125308   3.438   5.252   0.740 -1.7198 -1.8758 -1.0538
 3103WAT     H225309   3.484   5.328   0.618 -0.9252 -1.3604 -0.4512
 3104WAT      O25310   1.521   1.052   0.292  0.8214  0.6911 -0.0208
 3104WAT     H125311   1.486   1.135   0.260 -0.4038 -0.0227 -0.6435
 3104WAT     H225312   1.459   1.025   0.360  0.0583 -0.6258 -1.1784
 3105WAT      O25313   1.309   3.799   0.659  0.1065  0.2928 -0.6575
 3105WAT     H125314   1.345   3.883   0.630  0.0661  0.8604  0.8360
 3105WAT     H225315   1.341   3.789   0.749  1.3447 -2.0140 -1.2529
 3106WAT      O25316   2.692   4.158   6.898  0.8372  0.0241 -0.0153
 3106WAT     H125317   2.744   4.119   6.827 -1.1311 -0.5547 -1.2312
 3106WAT     H225318   2.725   4.248   6.904  0.3177  0.4765 -2.5321
 3107WAT      O25319   2.063   0.441   7.601  0.4735 -0.6248 -0.0260
 3107WAT     H125320   2.157   0.442   7.583  0.3221 -0.1823 -0.8324
 3107WAT     H225321   2.022   0.466   7.518 -0.2812  0.9107  0.7556
 3108WAT      O25322   0.892   1.077   0.577  0.0525 -0.1407  0.2970
 3108WAT     H125323   0.945   1.017   0.629  0.5071  0.4706  0.5502
 3108WAT     H225324   0.825   1.021   0.536 -0.2226 -0.6460  1.4113
 3109WAT      O25325   5.361   3.173   6.605  0.1481  0.6017  0.1089
 3109WAT     H125326   5.285   3.114   6.610  0.1318  0.7442  2.1794
 3109WAT     H225327   5.437   3.115   6.610  0.1804  0.5667 -0.6388
 3110WAT      O25328   2.884   3.527   7.221  0.0883 -0.1256 -0.1935
 3110WAT     H125329   2.792   3.543   7.245  0.4841  0.6450  0.8533
 3110WAT     H225330   2.882   3.442   7.176 -1.3030  0.4248 -1.2586
 3111WAT      O25331   1.702   2.555   6.131 -0.5165 -0.2796 -0.1119
 3111WAT     H125332   1.645   2.532   6.058 -1.3039 -1.2234  0.7726
 3111WAT     H225333   1.643   2.567   6.205 -0.0574  3.3412 -0.1358
 3112WAT      O25334   2.189   6.001   7.578 -0.1051  0.1141 -0.4185
 3112WAT     H125335   2.164   6.093   7.568  0.2187  0.3432  0.7198
 3112WAT     H225336   2.151   5.975   7.661 -0.7331 -0.9875 -1.0283
 3113WAT      O25337   3.765   4.127   0.119  0.0361 -0.5510  0.7625
 3113WAT     H125338   3.824   4.119   0.194  1.0416 -1.8701 -0.1193
 3113WAT     H225339   3.761   4.038   0.082 -1.3289 -0.1652 -0.0758
 3114WAT      O25340   2.086   4.026   0.713  0.1389  0.0379 -0.4792
 3114WAT     H125341   2.086   3.964   0.641  3.7033 -0.0674 -0.5869
 3114WAT     H225342   2.162   4.001   0.766 -1.3500  1.1492  2.4017
 3115WAT      O25343   5.056   6.177   6.755 -0.2921 -0.3554 -0.4226
 3115WAT     H125344   5.046   6.119   6.680  0.3144  0.5133 -1.2104
 3115WAT     H225345   5.150   6.182   6.770 -0.3564  0.1139 -0.1311
 3116WAT      O25346   0.394   3.481   7.587 -0.1027  0.4411  0.1069
 3116WAT     H125347   0.371   3.408   7.644  0.5546 -0.8536 -1.2477
 3116WAT     H225348   0.486   3.497   7.605  0.0366  0.2060 -0.3850
 3117WAT      O25349   2.823   2.455   0.895 -0.0114 -0.1839 -0.1954
 3117WAT     H125350   2.825   2.521   0.826  0.4159 -0.7265 -0.7049
 3117WAT     H225351   2.915   2.434   0.910 -0.1520 -0.7102 -0.0785
 3118WAT      O25352   3.668   3.237   6.384 -0.2912 -0.6141  0.0941
 3118WAT     H125353   3.758   3.212   6.363 -0.5853 -0.2917 -1.7652
 3118WAT     H225354   3.636   3.167   6.441  0.7843 -1.2934 -0.1001
 3119WAT      O25355   1.526   1.827   0.074 -0.0479 -0.3743  0.2634
 3119WAT     H125356   1.561   1.894   0.015  0.5844  0.2766  1.3296
 3119WAT     H225357   1.603   1.796   0.122 -0.6340 -0.4050  1.2025
 3120WAT      O25358   1.586   4.404   6.445  0.0432  0.6225  0.2397
 3120WAT     H125359   1.568   4.446   6.529  1.2486 -0.6907  1.2085
 3120WAT     H225360   1.501   4.394   6.404 -0.6259  0.8205  1.5325
 3121WAT      O25361   5.349   3.063   5.908 -0.3610  0.5402 -0.2903
 3121WAT     H125362   5.306   3.121   5.845 -0.7483 -1.5938 -2.1166
 3121WAT     H225363   5.309   2.977   5.892  2.6392 -0.9978 -0.2297
 3122WAT      O25364   4.331   4.548   7.468  0.7701 -0.1583 -0.0820
 3122WAT     H125365   4.329   4.559   7.373 -1.3735  1.8530  0.0949
 3122WAT     H225366   4.301   4.632   7.503 -0.2935 -1.4131  2.3191
 3123WAT      O25367   0.775   6.115   0.107 -0.3447 -0.0163 -0.0059
 3123WAT     H125368   0.854   6.137   0.157  0.3016 -2.2508  0.0556
 3123WAT     H225369   0.799   6.036   0.059 -2.9831 -1.5497  1.0475
 3124WAT      O25370   4.750   6.043   6.275 -0.6738 -0.2036  0.2558
 3124WAT     H125371   4.707   6.100   6.211  0.2813 -0.4441 -0.6268
 3124WAT     H225372   4.773   6.102   6.347  0.4750  0.6040 -0.7237
 3125WAT      O25373   5.569   1.944   1.198 -0.1043  0.0396 -0.0847
 3125WAT     H125374   5.602   2.020   1.151 -0.4098 -0.3001 -0.8777
 3125WAT     H225375   5.503   1.979   1.258  0.2013  0.4705 -0.0039
 3126WAT      O25376   0.293   5.243   7.680  0.7450 -0.2671  0.6485
 3126WAT     H125377   0.375   5.258   7.632  1.2792 -0.5677  1.4476
 3126WAT     H225378   0.250   5.328   7.681  0.3484 -0.4084 -1.0119
 3127WAT      O25379   1.273   0.611   7.063  0.1886  0.6207 -0.2748
 3127WAT     H125380   1.189   0.569   7.084  1.5807 -2.0579  0.4129
 3127WAT     H225381   1.263   0.701   7.093 -2.3660  0.3310 -0.0292
 3128WAT      O25382   1.419   4.130   0.712  0.0214 -0.2647 -0.1654
 3128WAT     H125383   1.378   4.118   0.626 -1.2824  0.6142  0.2902
 3128WAT     H225384   1.389   4.217   0.740  1.1848 -0.1462  0.7715
 3129WAT      O25385   1.814   4.829   0.834 -0.2199 -0.3375  0.2106
 3129WAT     H125386   1.881   4.777   0.791  0.5766 -0.2158  1.2618
 3129WAT     H225387   1.791   4.896   0.770  0.5921 -0.4389 -0.2003
 3130WAT      O25388   3.527   1.831   0.381 -0.4673 -0.0603  0.4332
 3130WAT     H125389   3.556   1.919   0.405  0.2951  0.0591 -0.8605
 3130WAT     H225390   3.571   1.773   0.444  1.6756  0.2222 -0.7343
 3131WAT      O25391   5.901   3.514   0.492  0.3954  0.8477 -0.1447
 3131WAT     H125392   5.882   3.420   0.488  0.9020  0.6960  0.8061
 3131WAT     H225393   5.826   3.551   0.538  0.2211  0.9104 -0.4728
 3132WAT      O25394   3.587   4.246   6.077 -0.5089  0.4020 -0.4005
 3132WAT     H125395   3.549   4.252   5.989  1.4179  1.9465 -1.2104
 3132WAT     H225396   3.663   4.304   6.074  1.1249 -1.4817  1.5041
 3133WAT      O25397   5.678   2.067   0.872 -0.4916  0.3141 -0.4151
 3133WAT     H125398   5.728   1.993   0.839 -1.3106 -0.2252 -0.4706
 3133WAT     H225399   5.743   2.136   0.886  0.0905  0.0297 -1.6285
 3134WAT      O25400   5.053   5.866   7.616 -0.0145  0.4341 -0.5576
 3134WAT     H125401   4.997   5.789   7.613  2.0505 -1.2614  1.0795
 3134WAT     H225402   5.055   5.891   7.708 -0.6990  2.5805 -1.0565
 3135WAT      O25403   4.803   4.374   0.691  0.8193 -0.0737  0.2229
 3135WAT     H125404   4.742   4.324   0.744  1.4398  1.7316  2.8425
 3135WAT     H225405   4.844   4.310   0.633 -2.2651 -1.5970 -0.4535
 3136WAT      O25406   0.034   2.083   6.765  0.2854 -0.3925 -0.4358
 3136WAT     H125407  -0.052   2.054   6.733  1.0466 -1.5982 -1.4812
 3136WAT     H225408   0.028   2.072   6.860 -1.0025  0.3829 -0.3951
 3137WAT      O25409   3.542   5.958   0.708  0.0863 -0.0909 -0.2974
 3137WAT     H125410   3.462   5.938   0.660  1.1886 -2.2011 -1.3615
 3137WAT     H225411   3.541   5.897   0.782  1.3872 -1.1723 -1.1416
 3138WAT      O25412   0.859   0.297   7.136 -0.5931  0.1117  0.0308
 3138WAT     H125413   0.885   0.243   7.211  0.3639 -1.4268 -1.3283
 3138WAT     H225414   0.765   0.279   7.126 -0.5586 -0.2990  0.3858
 3139WAT      O25415   0.839   3.962   0.450 -0.1213  0.1525  0.7610
 3139WAT     H125416   0.745   3.963   0.472 -0.0575 -2.1263  1.3763
 3139WAT     H225417   0.882   3.931   0.529  1.3733  2.5997  0.9845
 3140WAT      O25418   0.772   1.850   1.888 -0.2767  0.0211 -0.0122
 3140WAT     H125419   0.750   1.943   1.884 -0.5904 -0.0273  0.4307
 3140WAT     H225420   0.733   1.812   1.810 -0.5380  0.1838  0.0384
 3141WAT      O25421   5.692   3.209   6.935 -0.4233 -0.4283 -0.0387
 3141WAT     H125422   5.669   3.175   7.021  1.0027 -1.0723  0.1085
 3141WAT     H225423   5.620   3.268   6.912 -0.7906 -0.2101  1.6019
 3142WAT      O25424   1.842   1.975   0.042  0.2849  0.3458 -0.1902
 3142WAT     H125425   1.775   2.003  -0.020  0.2621 -0.5271 -0.5759
 3142WAT     H225426   1.914   1.944  -0.012  0.1270 -0.7480  0.2005
 3143WAT      O25427   1.416   4.486   1.356 -0.0854  0.4496  0.6301
 3143WAT     H125428   1.382   4.570   1.326  0.7954  1.6314  2.7444
 3143WAT     H225429   1.506   4.484   1.322 -0.7727 -0.7480 -1.3348
 3144WAT      O25430   1.588   4.575   6.944  0.4337 -0.0522 -0.0784
 3144WAT     H125431   1.641   4.654   6.949 -1.0811  1.0286 -0.3036
 3144WAT     H225432   1.648   4.504   6.967  2.1248  1.0185 -0.9726
 3145WAT      O25433   5.351   2.187   7.453 -0.0475 -0.3216  0.1833
 3145WAT     H125434   5.415   2.257   7.438 -0.5339  0.0456 -0.2434
 3145WAT     H225435   5.349   2.176   7.548  1.1612 -0.8330  0.1623
 3146WAT      O25436   3.968   2.326   1.446  0.1783  0.4036 -0.3880
 3146WAT     H125437   4.033   2.353   1.381  0.6498 -1.2341 -0.6547
 3146WAT     H225438   4.007   2.250   1.489 -1.9400 -1.3077 -1.2677
 3147WAT      O25439   2.558   5.388   7.084  0.1500 -0.1357 -0.0659
 3147WAT     H125440   2.616   5.464   7.077  1.7721 -1.3351 -0.5486
 3147WAT     H225441   2.488   5.415   7.142  0.1202  2.0489 -1.0205
 3148WAT      O25442   0.382   5.754   7.286 -0.7310 -0.7876 -0.0918
 3148WAT     H125443   0.429   5.831   7.252  0.1349 -0.5227  1.5871
 3148WAT     H225444   0.363   5.776   7.377 -0.8250 -2.4008  0.3109
 3149WAT      O25445   1.186   3.307   6.671 -0.3570  0.2254 -0.1107
 3149WAT     H125446   1.107   3.291   6.723  0.6558 -0.1165  1.3889
 3149WAT     H225447   1.213   3.395   6.695 -1.2254  1.0597 -1.9804
 3150WAT      O25448   4.428   0.528   1.673 -0.0927 -0.6931 -0.2181
 3150WAT     H125449   4.469   0.587   1.609 -0.8633  1.7740  1.4477
 3150WAT     H225450   4.502   0.481   1.712  0.7717  0.6759 -0.1514
 3151WAT      O25451   0.622   5.802   7.868 -0.3220 -0.0409 -0.0563
 3151WAT     H125452   0.557   5.833   7.932  0.4005  0.2700  0.5354
 3151WAT     H225453   0.670   5.733   7.915 -0.1768 -0.2272 -0.4736
 3152WAT      O25454   2.022   4.239   2.005 -0.1196 -0.0731 -0.0963
 3152WAT     H125455   1.954   4.173   1.990  0.5553 -0.6304 -0.8317
 3152WAT     H225456   2.075   4.236   1.926  1.9418 -1.0949  1.2393
 3153WAT      O25457   5.918   4.120   6.791 -0.3159 -0.4867 -0.4938
 3153WAT     H125458   5.868   4.154   6.865  0.4611 -1.8868  0.7259
 3153WAT     H225459   5.983   4.188   6.773 -0.3400 -0.2521  0.2848
 3154WAT      O25460   0.181   0.867   6.151 -0.0491  0.3857 -0.5838
 3154WAT     H125461   0.207   0.838   6.063  0.7432  3.1834 -1.3477
 3154WAT     H225462   0.260   0.854   6.204  0.6851  2.0035 -1.1916
 3155WAT      O25463   4.457   3.816   6.219  0.0301  0.0664  0.3672
 3155WAT     H125464   4.544   3.805   6.180 -0.6490 -0.0515 -1.1667
 3155WAT     H225465   4.409   3.737   6.195 -0.6338  0.2945  0.8933
 3156WAT      O25466   0.638   1.670   7.831  0.0286 -0.0934 -0.4225
 3156WAT     H125467   0.572   1.601   7.836  2.5155 -2.7413 -0.9559
 3156WAT     H225468   0.620   1.716   7.749  0.1932 -2.3767 -1.8386
 3157WAT      O25469   3.734   0.109   7.149  0.1438 -0.4612 -0.5445
 3157WAT     H125470   3.778   0.024   7.156  0.4482 -0.4527 -1.9678
 3157WAT     H225471   3.805   0.173   7.145 -0.0429  0.2649  3.5303
 3158WAT      O25472   5.324   5.199   7.397  0.1050 -0.0842 -1.0842
 3158WAT     H125473   5.404   5.203   7.344  0.3105  0.5954 -0.7366
 3158WAT     H225474   5.328   5.278   7.452  0.8740 -1.7319  1.3552
 3159WAT      O25475   5.250   1.528   1.583  0.3634 -0.3058  0.1437
 3159WAT     H125476   5.266   1.548   1.676  2.7943 -1.4884  0.0604
 3159WAT     H225477   5.312   1.459   1.563 -0.8327 -0.7873 -2.1438
 3160WAT      O25478   0.825   0.266   6.210 -0.1806 -0.7745 -0.1650
 3160WAT     H125479   0.882   0.243   6.283  0.4571 -0.0826 -0.4376
 3160WAT     H225480   0.884   0.287   6.138 -0.6985  1.5824  0.0254
 3161WAT      O25481   3.909   3.355   4.828 -0.2332 -0.0023 -0.8569
 3161WAT     H125482   3.948   3.311   4.903  2.0063  2.3617 -0.4907
 3161WAT     H225483   3.820   3.376   4.856  0.2444 -0.0399  0.7526
 3162WAT      O25484   4.946   4.152   6.692 -0.0385 -0.4787  0.3686
 3162WAT     H125485   4.949   4.224   6.754  0.2593  2.3466 -2.6723
 3162WAT     H225486   5.033   4.152   6.651 -0.6796 -1.2819 -1.0608
 3163WAT      O25487   4.130   3.136   1.281  0.1163 -0.7138  0.8209
 3163WAT     H125488   4.165   3.051   1.308 -1.2363 -1.7813 -0.6042
 3163WAT     H225489   4.192   3.166   1.214  0.4423 -0.7319  1.1145
 3164WAT      O25490   3.216   2.658   0.610  0.0937  0.2750  0.1104
 3164WAT     H125491   3.217   2.663   0.514 -1.3010 -2.4095 -0.1330
 3164WAT     H225492   3.144   2.598   0.630  0.9017  0.0855  2.8346
 3165WAT      O25493   4.848   3.870   6.817 -0.1220 -0.0413  0.1011
 3165WAT     H125494   4.908   3.941   6.835  0.4561 -0.4672 -0.1040
 3165WAT     H225495   4.767   3.895   6.860  0.6361 -0.1491  1.6373
 3166WAT      O25496   1.306   3.298   0.651  0.5324 -0.1451 -0.1833
 3166WAT     H125497   1.324   3.384   0.614 -1.8987 -0.0981 -1.4728
 3166WAT     H225498   1.251   3.315   0.727  0.1359 -0.5139 -0.3755
 3167WAT      O25499   2.631   5.307   0.681 -0.3944 -0.0136  0.3958
 3167WAT     H125500   2.665   5.290   0.769  0.2251 -0.9849 -0.0157
 3167WAT     H225501   2.632   5.402   0.673 -1.4706  0.1566  1.8175
 3168WAT      O25502   1.237   2.593   1.595 -0.4501 -0.0609  0.3440
 3168WAT     H125503   1.256   2.499   1.584 -2.5289 -0.3555 -1.6873
 3168WAT     H225504   1.270   2.633   1.514 -4.6896 -0.0768 -1.6455
 3169WAT      O25505   4.077   0.444   7.774 -0.0738 -0.6718 -0.3323
 3169WAT     H125506   4.138   0.442   7.700 -1.6604  0.9025 -1.7751
 3169WAT     H225507   4.029   0.362   7.769  2.7974 -2.6967  1.7555
 3170WAT      O25508   0.505   2.524   1.217 -0.1438  0.3721 -0.1602
 3170WAT     H125509   0.454   2.595   1.177 -1.2498  0.9212  2.0589
 3170WAT     H225510   0.590   2.563   1.237  0.0786  0.3654 -1.0527
 3171WAT      O25511   4.928   5.175   6.790 -0.2482 -0.0167 -0.0454
 3171WAT     H125512   4.918   5.270   6.794 -2.5564 -0.1822 -0.1478
 3171WAT     H225513   4.910   5.152   6.699 -0.9610 -0.6204  0.2260
 3172WAT      O25514   1.718   4.293   1.019 -0.5613 -0.6415 -0.0683
 3172WAT     H125515   1.635   4.269   1.061 -0.3144 -2.3045 -0.4655
 3172WAT     H225516   1.768   4.211   1.017  0.4267 -0.0359 -1.3446
 3173WAT      O25517   1.058   4.706   6.878 -0.6685 -0.1035 -0.0837
 3173WAT     H125518   1.087   4.781   6.827  0.1068 -1.2997 -1.5117
 3173WAT     H225519   1.033   4.742   6.963  0.5376  1.6339 -0.4122
 3174WAT      O25520   4.003   2.209   6.123 -0.1829  0.0478 -0.4423
 3174WAT     H125521   3.930   2.186   6.066  0.6867 -0.1540 -1.5149
 3174WAT     H225522   3.988   2.157   6.202 -0.5656 -0.9320 -1.1281
 3175WAT      O25523   2.892   5.898   0.268 -0.2731 -0.1539 -0.4457
 3175WAT     H125524   2.962   5.899   0.332 -1.7061  1.1086  1.1968
 3175WAT     H225525   2.850   5.984   0.277 -3.1736 -1.5035 -0.0230
 3176WAT      O25526   0.012   2.350   6.869  0.3988 -0.3619 -0.0560
 3176WAT     H125527  -0.002   2.271   6.817  0.7047  0.2267 -1.0756
 3176WAT     H225528   0.074   2.325   6.937  0.5357 -0.9790 -0.4052
 3177WAT      O25529   2.909   2.829   6.767  0.3650  0.1283  0.0013
 3177WAT     H125530   2.955   2.913   6.765  1.5896 -0.5360 -1.5326
 3177WAT     H225531   2.922   2.792   6.680 -0.0274 -1.7237  0.6831
 3178WAT      O25532   4.097   2.496   5.566  0.3710 -0.2698 -0.4949
 3178WAT     H125533   4.109   2.580   5.522  0.1417 -0.6895 -1.3683
 3178WAT     H225534   4.028   2.452   5.517  0.6340 -1.0580 -0.1804
 3179WAT      O25535   0.022   3.139   1.584 -0.3448  0.4175  0.3855
 3179WAT     H125536   0.048   3.059   1.540 -0.6849  0.1523  0.6526
 3179WAT     H225537   0.082   3.148   1.658  1.8562  2.1681 -1.4395
 3180WAT      O25538   3.176   3.700   5.639  0.0103 -0.3840  0.2224
 3180WAT     H125539   3.121   3.701   5.718  2.1264 -0.6008  1.7840
 3180WAT     H225540   3.128   3.755   5.577 -0.9049  1.2876  2.2660
 3181WAT      O25541   2.162   1.325   7.082  1.0007  0.9227 -0.0419
 3181WAT     H125542   2.214   1.343   7.004  1.6670  0.1542  0.2126
 3181WAT     H225543   2.214   1.261   7.131 -1.4903 -2.1790 -1.1871
 3182WAT      O25544   2.756   5.832   6.298  0.0934  0.3464 -0.2687
 3182WAT     H125545   2.807   5.861   6.374 -0.1403 -0.3066  0.1409
 3182WAT     H225546   2.802   5.871   6.223 -0.7978  2.6175  0.3065
 3183WAT      O25547   0.856   1.586   0.725 -0.3870 -0.2695 -0.4371
 3183WAT     H125548   0.815   1.507   0.761  0.5732 -1.0186 -0.9443
 3183WAT     H225549   0.787   1.626   0.673 -1.3613  0.0662  1.0417
 3184WAT      O25550   1.591   1.501   7.028 -0.0992 -0.1531 -0.1262
 3184WAT     H125551   1.578   1.579   6.975  0.1337 -0.4481 -0.6234
 3184WAT     H225552   1.672   1.463   6.996 -0.2011 -0.5932  0.1214
 3185WAT      O25553   2.757   6.053   0.953  0.1063  0.0175  0.2400
 3185WAT     H125554   2.847   6.029   0.932  0.2996  1.4375 -0.7302
 3185WAT     H225555   2.752   6.147   0.933 -1.5144  0.0258  0.5274
 3186WAT      O25556   4.443   0.660   0.736  0.1981  0.4935 -0.1621
 3186WAT     H125557   4.399   0.610   0.667 -1.3125  0.1446  1.0077
 3186WAT     H225558   4.372   0.690   0.793  1.2111  2.7206  0.0060
 3187WAT      O25559   4.664   5.198   5.628 -0.1986  0.1748  0.0202
 3187WAT     H125560   4.686   5.249   5.706  1.0428  1.6583 -1.2332
 3187WAT     H225561   4.598   5.251   5.583 -1.4849 -1.0447  0.4076
 3188WAT      O25562   2.064   3.378   7.170  0.4101  0.7725  0.3959
 3188WAT     H125563   2.158   3.361   7.163  0.3073  0.8102 -1.9025
 3188WAT     H225564   2.027   3.343   7.089 -1.5845  0.6867  1.2936
 3189WAT      O25565   3.705   3.501   1.534 -0.3250  0.2558 -0.3543
 3189WAT     H125566   3.684   3.506   1.441  1.2178 -0.0301 -0.7441
 3189WAT     H225567   3.631   3.453   1.573 -1.1954  0.7600 -1.3339
 3190WAT      O25568   2.607   4.516   6.504  0.3083 -0.3775 -0.1279
 3190WAT     H125569   2.642   4.442   6.555  0.0805 -0.0063  0.5873
 3190WAT     H225570   2.529   4.481   6.462  0.8880 -0.8896 -0.8015
 3191WAT      O25571   0.384   0.425   1.075 -0.2645 -0.1809 -0.3359
 3191WAT     H125572   0.439   0.499   1.102  0.5978 -0.3441 -1.5578
 3191WAT     H225573   0.377   0.370   1.153  1.6885 -0.3740 -0.2506
 3192WAT      O25574   1.231   0.225   0.184 -0.5612 -0.2167 -0.1658
 3192WAT     H125575   1.319   0.226   0.147 -0.7290  0.5080 -0.5713
 3192WAT     H225576   1.186   0.298   0.141 -2.2450 -2.2137 -2.0403
 3193WAT      O25577   2.786   1.951   0.810  0.5584 -0.2220  0.3589
 3193WAT     H125578   2.837   1.973   0.732  0.0929 -2.0904 -0.5320
 3193WAT     H225579   2.708   2.005   0.805  0.8276  0.1193 -0.1523
 3194WAT      O25580   1.154   2.113   7.135 -0.3138  0.2014  0.0218
 3194WAT     H125581   1.165   2.144   7.045 -1.7509  1.7005  0.3116
 3194WAT     H225582   1.222   2.047   7.147 -1.0134 -1.1210 -2.6440
 3195WAT      O25583   5.197   1.919   7.502  0.2112  0.3247 -0.0537
 3195WAT     H125584   5.279   1.893   7.545 -0.0624 -0.0563  0.2539
 3195WAT     H225585   5.223   1.948   7.415  0.7543  0.9027  0.2962
 3196WAT      O25586   0.491   5.615   0.363 -0.1323 -0.1157  0.1127
 3196WAT     H125587   0.523   5.539   0.413 -0.5033  0.4408  1.2307
 3196WAT     H225588   0.398   5.621   0.385 -0.3781 -0.0276 -0.8991
 3197WAT      O25589   5.082   3.009   0.446  0.3219 -0.0220  0.8936
 3197WAT     H125590   4.999   3.048   0.419  0.2918  0.1036  1.1679
 3197WAT     H225591   5.147   3.048   0.387  0.3607  0.8068  1.4701
 3198WAT      O25592   2.344   0.460   7.075 -0.4284 -0.3282 -0.1038
 3198WAT     H125593   2.389   0.376   7.074  1.0239  0.4065 -0.6151
 3198WAT     H225594   2.262   0.444   7.030 -0.8980 -1.8158  1.1864
 3199WAT      O25595   3.823   3.927   1.388  0.3144 -0.3793  0.3664
 3199WAT     H125596   3.753   3.940   1.325 -0.0812  1.0981  1.0669
 3199WAT     H225597   3.870   4.010   1.389  1.0213 -0.7703  1.1658
 3200WAT      O25598   2.677   4.521   0.245  0.1349  0.6312 -0.4032
 3200WAT     H125599   2.678   4.432   0.281 -0.2279  0.6459 -0.3547
 3200WAT     H225600   2.585   4.539   0.227  0.4293 -0.0167 -2.9434
 3201WAT      O25601   6.088   0.650   7.708  0.2958  0.3418  0.3697
 3201WAT     H125602   6.029   0.709   7.754 -0.2996 -0.1403  0.2357
 3201WAT     H225603   6.083   0.568   7.757 -0.6788 -0.3121 -0.7594
 3202WAT      O25604   4.508   2.877   6.749 -0.1934 -0.2273 -0.2532
 3202WAT     H125605   4.445   2.858   6.818  1.2635 -0.3232  1.0942
 3202WAT     H225606   4.566   2.943   6.787  0.3454  0.0937 -1.5719
 3203WAT      O25607   3.863   6.197   5.944  0.2521 -0.0139 -0.3283
 3203WAT     H125608   3.816   6.116   5.962  0.5700 -0.5042 -1.6073
 3203WAT     H225609   3.842   6.218   5.853 -0.0622  1.5175  0.0582
 3204WAT      O25610   1.939   0.158   0.150  0.1851  0.3567  0.1095
 3204WAT     H125611   1.869   0.159   0.216  0.1111 -1.9733  0.1385
 3204WAT     H225612   1.897   0.190   0.070 -0.1246  1.7215  0.7791
 3205WAT      O25613   0.306   0.483   6.692  0.1364 -0.2292 -0.8294
 3205WAT     H125614   0.285   0.392   6.670  1.0790 -0.6039 -0.2748
 3205WAT     H225615   0.385   0.502   6.641  0.5365 -0.0683 -0.1579
 3206WAT      O25616   0.024   4.392   1.408 -0.4410  0.3938  0.5322
 3206WAT     H125617   0.071   4.325   1.457 -1.1766 -0.9601 -0.5590
 3206WAT     H225618  -0.063   4.356   1.396 -0.9233  1.6608  0.1140
 3207WAT      O25619   3.527   1.096   7.224  0.1896  0.1623 -0.3177
 3207WAT     H125620   3.512   1.028   7.158 -0.4446 -0.6117  0.6058
 3207WAT     H225621   3.576   1.052   7.293 -0.7935  0.4625  0.5945
 3208WAT      O25622   0.995   2.975   5.897  0.0056 -0.0549  1.0519
 3208WAT     H125623   0.992   3.065   5.931 -0.4206 -1.0182  3.7997
 3208WAT     H225624   1.079   2.941   5.927  1.0327 -0.0490 -1.6156
 3209WAT      O25625   2.597   2.398   5.292 -0.5451  0.1118 -0.4425
 3209WAT     H125626   2.519   2.414   5.345  1.3135 -0.3707  2.7413
 3209WAT     H225627   2.631   2.486   5.274 -1.0228  0.2754 -0.5714
 3210WAT      O25628   4.996   5.037   1.239 -0.0205  0.1905 -0.3970
 3210WAT     H125629   5.045   5.000   1.312 -1.3642  0.6997  0.8071
 3210WAT     H225630   4.981   5.128   1.263 -0.7915  0.2784 -1.1384
 3211WAT      O25631   4.272   3.187   7.310  0.3806 -0.5090  0.6091
 3211WAT     H125632   4.351   3.161   7.357  0.1646 -1.2093  0.5870
 3211WAT     H225633   4.204   3.194   7.377  0.0675 -1.5238  0.4143
 3212WAT      O25634   4.355   0.762   2.345  0.3851  0.1738 -0.1119
 3212WAT     H125635   4.433   0.716   2.315  1.7196  2.2002  0.0754
 3212WAT     H225636   4.282   0.712   2.309  1.8093 -0.6790 -1.9648
 3213WAT      O25637   0.049   4.896   6.825  0.3569  0.4941  0.2345
 3213WAT     H125638   0.118   4.835   6.798 -1.4067 -1.1263 -0.8936
 3213WAT     H225639   0.090   4.950   6.892  2.3408 -1.2459  0.5531
 3214WAT      O25640   0.505   2.966   1.314 -0.1574  0.3492  0.4857
 3214WAT     H125641   0.440   2.896   1.303 -1.0067  1.1422  0.3049
 3214WAT     H225642   0.512   3.006   1.228 -0.5586  1.2294  0.8531
 3215WAT      O25643   4.644   0.052   6.187 -0.1919  0.1263  0.2786
 3215WAT     H125644   4.725   0.102   6.188 -1.3417  2.0917 -0.0663
 3215WAT     H225645   4.595   0.084   6.263 -0.3078 -1.6813  1.0221
 3216WAT      O25646   5.836   0.769   6.967  0.2267 -0.4062  0.0563
 3216WAT     H125647   5.913   0.806   6.923  0.0546  0.3252  0.3447
 3216WAT     H225648   5.762   0.816   6.928  0.0991  0.5735  1.4167
 3217WAT      O25649   0.746   3.548   7.901  0.3654  0.1695 -0.4791
 3217WAT     H125650   0.826   3.596   7.919 -1.2255  3.4619 -1.5278
 3217WAT     H225651   0.735   3.491   7.978  1.8012  2.2893  1.4152
 3218WAT      O25652   0.605   6.055   6.815 -0.2337 -0.3539 -0.0106
 3218WAT     H125653   0.603   5.960   6.805 -0.2370 -0.3197 -0.3509
 3218WAT     H225654   0.685   6.072   6.865  1.5688 -0.3127 -2.6570
 3219WAT      O25655   0.055   4.612   0.616  0.5024  0.1631 -0.2746
 3219WAT     H125656   0.002   4.574   0.686 -0.1843  0.5099 -0.5855
 3219WAT     H225657  -0.003   4.678   0.576  1.2489  0.6980 -0.4957
 3220WAT      O25658   5.042   2.455   0.052  0.0298 -0.0488  0.1742
 3220WAT     H125659   4.963   2.473   0.103  0.4462  0.2563  0.7293
 3220WAT     H225660   5.056   2.534   0.000  0.6838  0.4285  1.0444
 3221WAT      O25661   5.877   4.161   7.337  0.3658 -0.2332  0.5368
 3221WAT     H125662   5.844   4.177   7.425  2.3967 -0.6133  1.4286
 3221WAT     H225663   5.919   4.075   7.342  0.9373 -0.0508 -0.6627
 3222WAT      O25664   1.877   4.444   0.838 -0.0759 -0.9213  0.2821
 3222WAT     H125665   1.895   4.374   0.775 -0.2171  0.1187 -0.9822
 3222WAT     H225666   1.833   4.401   0.911 -1.3390 -1.9773 -1.0409
 3223WAT      O25667   4.452   1.503   5.805  0.2503 -0.0943  0.3990
 3223WAT     H125668   4.473   1.410   5.817 -0.0410 -0.2044  0.0879
 3223WAT     H225669   4.362   1.502   5.772  0.8666  0.2037 -1.3866
 3224WAT      O25670   5.276   3.137   1.217 -0.2631  0.4031 -0.5993
 3224WAT     H125671   5.261   3.153   1.310  0.8056 -2.4214  0.1745
 3224WAT     H225672   5.189   3.117   1.182 -0.2373 -4.0745  1.1796
 3225WAT      O25673   4.720   5.439   7.874  0.2179  0.1967 -0.9533
 3225WAT     H125674   4.744   5.472   7.960 -1.9616 -3.0092  1.1094
 3225WAT     H225675   4.625   5.439   7.873  0.1570 -1.9635 -2.3656
 3226WAT      O25676   4.837   1.817   1.403 -0.1145  0.4463 -0.0894
 3226WAT     H125677   4.922   1.775   1.419 -0.4032 -0.0168  0.2547
 3226WAT     H225678   4.838   1.895   1.459  0.0609  0.4135 -0.0460
 3227WAT      O25679   1.553   4.092   7.784  0.4942 -0.3116  0.5179
 3227WAT     H125680   1.615   4.125   7.720  1.5492 -1.9957  0.6047
 3227WAT     H225681   1.491   4.164   7.798  2.0282  1.1709 -0.0671
 3228WAT      O25682   1.776   3.452   0.116 -0.4715 -0.1892 -0.1279
 3228WAT     H125683   1.760   3.478   0.025  0.0926 -0.9790 -0.4605
 3228WAT     H225684   1.857   3.401   0.113 -0.4193 -0.1788  0.8305
 3229WAT      O25685   6.019   3.399   6.218 -0.4984  0.1842 -0.1979
 3229WAT     H125686   5.931   3.385   6.252 -0.3723 -0.7793 -0.2371
 3229WAT     H225687   6.010   3.471   6.155 -1.0432  0.8410  0.6118
 3230WAT      O25688   4.737   4.278   5.889  0.1224  1.0670  0.1230
 3230WAT     H125689   4.755   4.301   5.981 -1.6344 -1.3038  1.1471
 3230WAT     H225690   4.813   4.226   5.862 -0.2986 -0.0254  0.9699
 3231WAT      O25691   0.901   2.701   5.829 -0.3491  0.0994 -0.0921
 3231WAT     H125692   0.977   2.647   5.847 -1.3455 -0.7584  1.7470
 3231WAT     H225693   0.917   2.782   5.877 -0.4244  0.0663 -0.0099
 3232WAT      O25694   3.234   5.735   7.797 -0.2738  0.2388 -0.5613
 3232WAT     H125695   3.161   5.766   7.744  0.1492  1.9779 -0.1736
 3232WAT     H225696   3.202   5.740   7.887 -0.4458 -1.2123 -0.5136
 3233WAT      O25697   0.499   3.976   6.347 -0.3350  0.0485 -0.1536
 3233WAT     H125698   0.518   4.029   6.270  0.2354  0.7038  0.4251
 3233WAT     H225699   0.564   4.002   6.412 -0.8324 -0.4526  0.5746
 3234WAT      O25700   3.723   3.490   0.221  0.1339 -0.3568 -0.0213
 3234WAT     H125701   3.816   3.501   0.198  0.5071 -0.6818  1.2567
 3234WAT     H225702   3.676   3.514   0.141  1.3587 -1.3074 -1.0808
 3235WAT      O25703   2.882   5.864   6.551 -0.0012  0.0869  0.0541
 3235WAT     H125704   2.976   5.868   6.567  0.1629  2.5317 -0.9748
 3235WAT     H225705   2.855   5.779   6.584  2.4784 -0.4788  0.8243
 3236WAT      O25706   3.551   2.125   7.414  0.6073  0.0918  0.6146
 3236WAT     H125707   3.517   2.184   7.347 -0.8705 -1.9380 -0.4930
 3236WAT     H225708   3.489   2.133   7.487  0.7011  0.2441  0.6812
 3237WAT      O25709   4.008   4.536   7.346  1.0609  0.3981 -0.2388
 3237WAT     H125710   4.041   4.599   7.409  0.9872  2.4985 -2.1652
 3237WAT     H225711   4.062   4.549   7.268 -0.4481 -0.2938 -1.4559
 3238WAT      O25712   2.074   2.486   0.845 -0.0355  0.4148 -1.1356
 3238WAT     H125713   2.070   2.577   0.875 -0.3723  0.2455 -0.6589
 3238WAT     H225714   2.155   2.452   0.883 -1.0253 -0.1310  0.5593
 3239WAT      O25715   5.816   5.129   0.643 -0.8968 -0.6941  0.2199
 3239WAT     H125716   5.868   5.121   0.723 -0.6115 -0.1195  0.0998
 3239WAT     H225717   5.878   5.162   0.578 -1.5851  0.8089  0.2747
 3240WAT      O25718   3.552   4.339   7.494  0.0312  0.4810 -0.0453
 3240WAT     H125719   3.585   4.344   7.404  0.1495  0.7589  0.0132
 3240WAT     H225720   3.544   4.245   7.511  1.9054  0.3622  0.3452
 3241WAT      O25721   0.484   0.575   0.259 -0.1845  0.1671 -0.2188
 3241WAT     H125722   0.431   0.627   0.319  0.5339  1.1590 -0.4099
 3241WAT     H225723   0.467   0.613   0.173  0.3859  0.1230 -0.3546
 3242WAT      O25724   0.938   5.498   5.972 -0.1341 -0.1286  0.8028
 3242WAT     H125725   0.953   5.590   5.995  1.1222  0.2530 -1.2346
 3242WAT     H225726   1.023   5.457   5.981 -0.0766 -0.4429 -0.8052
 3243WAT      O25727   1.855   0.098   7.011  0.6610 -0.6067  0.4031
 3243WAT     H125728   1.766   0.070   7.032  0.5183 -0.8704 -0.5259
 3243WAT     H225729   1.909   0.022   7.030  1.0646  0.2925  3.3408
 3244WAT      O25730   2.496   4.028   6.456 -0.3339 -0.3150 -0.0607
 3244WAT     H125731   2.539   3.955   6.410 -1.2989 -1.0658  0.1903
 3244WAT     H225732   2.447   3.986   6.527 -1.1960  0.5381 -0.1249
 3245WAT      O25733   5.442   1.769   7.588 -0.0962 -0.3384  0.5488
 3245WAT     H125734   5.460   1.843   7.646  0.5865 -0.1631  0.1330
 3245WAT     H225735   5.484   1.694   7.631 -0.9734 -0.5400  1.0792
 3246WAT      O25736   3.974   6.128   0.044 -0.1429  0.6915 -0.7522
 3246WAT     H125737   3.937   6.137  -0.043  1.1658  0.1675 -1.3856
 3246WAT     H225738   4.066   6.153   0.034  0.2262 -0.1821  0.2853
 3247WAT      O25739   1.406   2.182   7.811  0.1614 -0.0931 -0.4509
 3247WAT     H125740   1.323   2.135   7.811  0.2263 -0.2236 -1.2782
 3247WAT     H225741   1.409   2.224   7.725  0.8291  0.1316 -0.3210
 3248WAT      O25742   3.217   3.524   6.737  0.0457  0.5169  0.4730
 3248WAT     H125743   3.214   3.607   6.784 -1.3536  1.5883 -1.3535
 3248WAT     H225744   3.267   3.543   6.658  1.0902 -0.8379  0.7755
 3249WAT      O25745   5.628   3.972   6.855  0.1247  0.1555  0.0062
 3249WAT     H125746   5.675   4.052   6.832 -0.1246  1.3618  3.2059
 3249WAT     H225747   5.542   4.002   6.885 -1.4121 -1.6983 -2.1695
 3250WAT      O25748   1.480   0.598   6.442  0.7842 -1.0357 -0.8731
 3250WAT     H125749   1.502   0.655   6.515 -2.5942 -1.0335  0.2799
 3250WAT     H225750   1.552   0.610   6.380  0.6583  3.9099 -0.4234
 3251WAT      O25751   0.395   4.904   0.419 -0.1255 -0.0851  0.4986
 3251WAT     H125752   0.418   4.961   0.492  2.5437 -2.5046  1.7552
 3251WAT     H225753   0.336   4.839   0.456  0.4056 -0.7060  0.2820
 3252WAT      O25754   5.894   3.615   7.234  0.5009 -0.3000  0.4229
 3252WAT     H125755   5.871   3.536   7.282  0.8190 -1.6374 -1.5083
 3252WAT     H225756   5.856   3.603   7.147  1.8285  0.9917 -0.3852
 3253WAT      O25757   0.409   1.779   5.790 -0.2363  0.4486  0.3359
 3253WAT     H125758   0.483   1.841   5.785  0.9037 -0.9311 -2.8599
 3253WAT     H225759   0.332   1.834   5.778  0.5908  1.5416 -0.2843
 3254WAT      O25760   4.299   3.417   0.519  0.0725 -0.3723  0.0052
 3254WAT     H125761   4.304   3.322   0.529 -1.2883 -0.3125  1.6287
 3254WAT     H225762   4.205   3.437   0.519  0.3389  0.9934  0.0249
 3255WAT      O25763   0.033   2.610   7.094  0.0496 -0.0882  0.3033
 3255WAT     H125764   0.029   2.515   7.093  1.0812 -0.1500 -0.4980
 3255WAT     H225765   0.110   2.631   7.040 -0.7017  1.2141 -0.3234
 3256WAT      O25766   5.183   4.959   5.893  0.1119  0.1255 -0.3797
 3256WAT     H125767   5.243   4.928   5.826  2.0408  0.6086  1.0337
 3256WAT     H225768   5.174   5.053   5.876  2.5578  0.7662  1.3569
 3257WAT      O25769   4.519   3.684   0.611  0.3368  0.6061 -0.4331
 3257WAT     H125770   4.461   3.660   0.683 -0.2912 -1.0725 -1.4236
 3257WAT     H225771   4.608   3.672   0.646  0.0751  1.4450  0.5455
 3258WAT      O25772   1.058   1.831   2.241  0.1115  0.0470 -0.6525
 3258WAT     H125773   1.002   1.889   2.189 -0.5298  0.8193  0.8482
 3258WAT     H225774   1.009   1.817   2.322  1.2205 -0.8875 -0.1205
 3259WAT      O25775   0.822   3.477   6.652 -0.6640 -0.2758 -0.1178
 3259WAT     H125776   0.806   3.564   6.616 -0.2194  0.1661  0.7262
 3259WAT     H225777   0.758   3.467   6.722 -0.4808 -0.4809  0.0246
 3260WAT      O25778   0.613   2.129   1.215  0.2415 -0.4097  0.8420
 3260WAT     H125779   0.684   2.163   1.270  0.8862 -1.8916  0.9637
 3260WAT     H225780   0.658   2.093   1.139 -0.5001 -0.1948  0.2982
 3261WAT      O25781   2.349   1.077   7.839 -0.0744  0.3173 -0.1034
 3261WAT     H125782   2.431   1.081   7.790  1.4948  1.3381  2.3863
 3261WAT     H225783   2.356   0.997   7.890 -0.9358  0.0894 -0.3249
 3262WAT      O25784   1.591   1.384   0.168  0.6213 -1.0581 -0.2879
 3262WAT     H125785   1.590   1.414   0.078  1.0090  1.7452  0.5436
 3262WAT     H225786   1.501   1.359   0.187  0.2770 -0.4065 -1.0574
 3263WAT      O25787   2.785   0.492   7.064 -0.2565  0.6989  0.1368
 3263WAT     H125788   2.834   0.409   7.061  2.1464  2.0183  0.5456
 3263WAT     H225789   2.721   0.484   6.994 -2.1993 -2.6913  2.0073
 3264WAT      O25790   2.316   2.599   6.442  0.2262 -0.5641  0.4589
 3264WAT     H125791   2.383   2.602   6.374 -0.3575 -1.6787 -0.1854
 3264WAT     H225792   2.365   2.600   6.524  1.0690 -1.7958 -0.0016
 3265WAT      O25793   0.230   6.016   7.722  0.0330 -0.1747  0.7251
 3265WAT     H125794   0.316   6.058   7.723  0.6049 -1.3127  0.8834
 3265WAT     H225795   0.204   6.012   7.814 -0.7435  1.2341  0.5883
 3266WAT      O25796   0.601   4.850   6.478  0.1396 -0.3698 -0.2121
 3266WAT     H125797   0.618   4.768   6.525 -0.7962  0.3217  1.3993
 3266WAT     H225798   0.687   4.891   6.468  0.3308 -0.4011  1.1711
 3267WAT      O25799   2.108   2.120   6.920 -0.2373 -0.0937 -0.5294
 3267WAT     H125800   2.110   2.215   6.910 -0.2369  0.0462  0.6996
 3267WAT     H225801   2.016   2.099   6.936 -0.3404 -0.3827 -1.4347
 3268WAT      O25802   3.615   3.460   0.995 -0.1937  0.1597  0.2218
 3268WAT     H125803   3.659   3.426   0.917  0.8010  1.1739  0.3204
 3268WAT     H225804   3.525   3.477   0.965  0.2581  0.8646 -0.8235
 3269WAT      O25805   0.391   3.954   6.633  0.2592 -0.0917 -0.0707
 3269WAT     H125806   0.466   3.916   6.586 -0.7781  0.3323 -2.1695
 3269WAT     H225807   0.339   3.996   6.565 -1.0216  1.1126  1.5796
 3270WAT      O25808   6.196   4.028   1.143 -0.2829 -0.5088 -0.1638
 3270WAT     H125809   6.228   3.938   1.154 -0.7614 -0.5685  0.9763
 3270WAT     H225810   6.153   4.047   1.227 -0.0308  0.8511 -0.3327
 3271WAT      O25811   5.000   5.826   0.717  0.0361  0.1014  0.1348
 3271WAT     H125812   4.914   5.822   0.675  0.5671 -1.5306 -0.9130
 3271WAT     H225813   5.043   5.745   0.691  1.4130  0.2609  1.7300
 3272WAT      O25814   5.528   4.262   0.799  0.1773  0.3849  0.3046
 3272WAT     H125815   5.507   4.186   0.745 -3.8053  0.5887  1.3065
 3272WAT     H225816   5.571   4.226   0.876 -0.0468 -0.6141 -0.0306
 3273WAT      O25817   0.558   3.923   6.883  0.0406 -0.6010 -0.2852
 3273WAT     H125818   0.646   3.934   6.918  0.1399  0.2386 -0.7715
 3273WAT     H225819   0.540   4.005   6.838 -0.7530 -1.0023 -0.7155
 3274WAT      O25820   0.195   2.925   0.734 -0.7996 -0.0055 -0.7006
 3274WAT     H125821   0.138   2.905   0.660 -1.1486 -1.0875 -0.1647
 3274WAT     H225822   0.169   3.012   0.763  0.1402  0.9591 -2.5645
 3275WAT      O25823   0.292   5.593   2.226 -0.1542 -0.1130 -0.3880
 3275WAT     H125824   0.282   5.685   2.201 -0.0016 -0.2444 -0.9533
 3275WAT     H225825   0.367   5.592   2.286  0.8247 -0.0715 -1.5895
 3276WAT      O25826   4.715   5.399   1.530  0.7057  0.1827  0.6923
 3276WAT     H125827   4.713   5.453   1.451  0.1745 -0.5624  0.1882
 3276WAT     H225828   4.694   5.461   1.601  1.9514  1.0204  0.3704
 3277WAT      O25829   0.690   4.607   6.612 -0.2512 -0.1286 -0.2028
 3277WAT     H125830   0.767   4.560   6.580  1.0996  2.4232 -0.9973
 3277WAT     H225831   0.697   4.603   6.707 -0.3472 -1.6937 -0.2306
 3278WAT      O25832   6.190   3.964   7.743  0.6032 -0.2363  0.3149
 3278WAT     H125833   6.241   3.932   7.668 -0.8737 -1.1684 -0.3396
 3278WAT     H225834   6.182   4.058   7.728  1.9846 -0.0776  0.3797
 3279WAT      O25835   0.718   3.142   1.680  0.0120  0.5372 -0.3066
 3279WAT     H125836   0.806   3.103   1.679  0.6544  1.7536 -3.5469
 3279WAT     H225837   0.715   3.192   1.761  1.9028 -0.4064  0.4111
 3280WAT      O25838   3.981   3.087   6.738  0.2651 -0.3741 -0.3412
 3280WAT     H125839   4.076   3.094   6.725  0.3442 -0.7988  0.0110
 3280WAT     H225840   3.948   3.052   6.655  0.5834 -1.5612  0.0138
 3281WAT      O25841   4.659   1.234   0.554  0.0186  0.1413  0.6527
 3281WAT     H125842   4.713   1.217   0.477  0.3410 -0.8631  1.0851
 3281WAT     H225843   4.608   1.153   0.565  1.5106 -0.6115  2.7290
 3282WAT      O25844   5.084   3.103   6.587 -0.0709  0.4259  0.1752
 3282WAT     H125845   5.075   3.026   6.531  0.5752  0.1690  0.4135
 3282WAT     H225846   4.994   3.127   6.610 -0.3358  0.4663 -0.8712
 3283WAT      O25847   6.034   5.473   0.595  0.2435 -0.1080  0.0718
 3283WAT     H125848   6.101   5.454   0.529  1.6577 -1.7400  1.8611
 3283WAT     H225849   5.955   5.491   0.544  1.5755  0.0673 -2.0817
 3284WAT      O25850   0.999   3.369   0.757  0.2004 -0.1947  0.0081
 3284WAT     H125851   0.924   3.377   0.816  2.4072  2.7361  2.7417
 3284WAT     H225852   0.976   3.424   0.682 -0.1999  1.2552  1.1382
 3285WAT      O25853   3.524   3.623   0.602 -0.1594 -0.1439  0.0694
 3285WAT     H125854   3.616   3.645   0.586 -0.2463 -0.6533 -1.3104
 3285WAT     H225855   3.516   3.532   0.573 -1.1468 -0.0284 -0.0668
 3286WAT      O25856   4.261   3.288   5.250  0.4378  0.1664  0.1992
 3286WAT     H125857   4.234   3.233   5.324 -1.6333 -0.1990 -0.7406
 3286WAT     H225858   4.245   3.233   5.173  3.1259  0.3187 -0.5399
 3287WAT      O25859   3.886   3.571   0.817 -0.1723  0.5792 -0.0753
 3287WAT     H125860   3.849   3.617   0.892 -0.0084 -2.4848  2.1119
 3287WAT     H225861   3.977   3.555   0.840 -0.7199 -2.6150  0.4367
 3288WAT      O25862   4.685   2.020   1.891  1.0026 -0.0431  0.7338
 3288WAT     H125863   4.744   1.964   1.942  0.0198  0.1063  2.0883
 3288WAT     H225864   4.725   2.107   1.896  0.5515  0.1132  1.8834
 3289WAT      O25865   1.361   5.048   0.934  0.0776 -0.2440  0.1434
 3289WAT     H125866   1.408   5.100   0.869  0.0793  0.6700  0.8452
 3289WAT     H225867   1.422   4.978   0.956  0.6922  0.3090  0.2520
 3290WAT      O25868   5.090   2.971   7.348 -0.1822 -0.6456 -0.0904
 3290WAT     H125869   5.070   2.967   7.442  0.2664 -1.3452 -0.0099
 3290WAT     H225870   5.112   3.062   7.332  0.8886 -0.7252  0.7542
 3291WAT      O25871   4.814   6.157   1.011 -0.3274  0.2327 -0.2776
 3291WAT     H125872   4.722   6.184   1.016  0.2176  2.2130 -0.2810
 3291WAT     H225873   4.839   6.139   1.101 -1.6987 -4.2116 -0.5334
 3292WAT      O25874   4.792   4.895   7.285  0.4995 -0.4021  0.2107
 3292WAT     H125875   4.725   4.831   7.264  1.1370 -1.1832  0.5295
 3292WAT     H225876   4.857   4.847   7.336 -0.5811  1.2118  3.3612
 3293WAT      O25877   3.494   1.493   7.653  0.0523  0.7262  0.1808
 3293WAT     H125878   3.530   1.580   7.635  0.3469  0.5702  0.0019
 3293WAT     H225879   3.502   1.446   7.569  1.2592  0.0541  0.6545
 3294WAT      O25880   3.071   1.754   7.037 -0.0634  0.5852 -0.1916
 3294WAT     H125881   3.002   1.817   7.018 -2.6895 -1.3116  2.2167
 3294WAT     H225882   3.098   1.774   7.126 -0.6402 -1.3122  0.4655
 3295WAT      O25883   0.139   3.154   6.043  0.4963 -0.5557  0.1924
 3295WAT     H125884   0.193   3.150   5.964  2.2711 -1.5516  1.3747
 3295WAT     H225885   0.054   3.187   6.013  1.3589 -0.1414 -1.9682
 3296WAT      O25886   2.127   2.750   6.586  0.8197 -0.4372  0.2574
 3296WAT     H125887   2.059   2.739   6.653  0.6401 -0.6224  0.0433
 3296WAT     H225888   2.165   2.662   6.577 -1.0127 -1.0899 -1.8913
 3297WAT      O25889   3.149   3.117   1.199  0.0430  1.0131 -0.3009
 3297WAT     H125890   3.190   3.057   1.261  0.0336  0.8360 -0.4651
 3297WAT     H225891   3.219   3.177   1.173  0.2786  0.5324 -0.8027
 3298WAT      O25892   5.312   5.640   6.269  0.2248 -0.0067  0.1599
 3298WAT     H125893   5.344   5.700   6.335  1.4838 -1.4513  0.9357
 3298WAT     H225894   5.364   5.659   6.191  0.9558 -0.3688  0.5447
 3299WAT      O25895   0.368   0.034   7.212 -0.4137 -0.1014 -0.6778
 3299WAT     H125896   0.421   0.114   7.211 -1.2943  0.5226  0.0371
 3299WAT     H225897   0.421  -0.029   7.261 -0.0787  0.3322 -0.4647
 3300WAT      O25898   5.210   4.417   0.981  0.4667  0.6545 -0.3171
 3300WAT     H125899   5.124   4.424   0.938 -0.2880  1.6744  1.2466
 3300WAT     H225900   5.209   4.330   1.022 -0.0442  0.8520  0.1055
 3301WAT      O25901   0.937   0.714   0.875  0.2084 -0.6676  0.1312
 3301WAT     H125902   0.947   0.644   0.940 -0.0236 -0.2044  0.6721
 3301WAT     H225903   0.848   0.746   0.887  0.5600  0.2417  0.4247
 3302WAT      O25904   5.393   1.959   7.299  0.2375  0.1298 -0.2987
 3302WAT     H125905   5.391   2.050   7.328  0.1900 -0.4924  1.7705
 3302WAT     H225906   5.402   1.965   7.204  2.7715  2.2775 -0.0403
 3303WAT      O25907   0.638   2.506   7.848  0.7584 -0.4704 -0.4641
 3303WAT     H125908   0.572   2.439   7.867 -0.3069  0.5919 -0.2586
 3303WAT     H225909   0.660   2.493   7.756 -0.5727 -0.1513 -0.8430
 3304WAT      O25910   0.933   3.022   6.277 -0.3923  0.1933 -0.3621
 3304WAT     H125911   1.006   3.077   6.305 -0.2286  0.1288 -0.6612
 3304WAT     H225912   0.921   3.044   6.184  0.1051 -0.7532 -0.6689
 3305WAT      O25913   2.186   2.175   6.452 -0.3947  0.0141 -0.5170
 3305WAT     H125914   2.235   2.183   6.370 -1.5934 -0.2638 -1.2759
 3305WAT     H225915   2.163   2.265   6.474  2.4199  0.4485  1.1267
 3306WAT      O25916   2.176   1.233   7.695 -0.0098  0.3750  0.3521
 3306WAT     H125917   2.182   1.177   7.617  0.1557 -0.1446  0.7338
 3306WAT     H225918   2.230   1.189   7.760  0.8047  1.4103  0.4046
 3307WAT      O25919   3.897   1.004   1.487 -0.1324 -0.0456 -0.0812
 3307WAT     H125920   3.893   0.923   1.538 -0.0878 -0.9446 -1.4563
 3307WAT     H225921   3.807   1.019   1.459 -0.4467  1.3174  1.5356
 3308WAT      O25922   0.513   0.769   0.480  0.3411  0.2039  0.3544
 3308WAT     H125923   0.431   0.795   0.523  0.8353  0.6803  1.0262
 3308WAT     H225924   0.582   0.805   0.536  1.0152 -0.3432 -0.1119
 3309WAT      O25925   0.865   6.170   0.383 -0.0969 -0.1626 -0.8271
 3309WAT     H125926   0.778   6.155   0.343 -0.9482  0.2852  0.7824
 3309WAT     H225927   0.897   6.082   0.403 -0.5118 -0.3014 -0.7585
 3310WAT      O25928   3.314   3.174   1.632  0.5305 -0.0119  0.8660
 3310WAT     H125929   3.354   3.088   1.621  0.8031  0.1022  0.9544
 3310WAT     H225930   3.274   3.170   1.719  1.4779  0.3148  1.3340
 3311WAT      O25931   5.582   4.246   1.482 -0.3939  0.5474  0.4578
 3311WAT     H125932   5.515   4.262   1.548 -1.0476 -0.0823 -0.0362
 3311WAT     H225933   5.636   4.176   1.520 -0.3564  0.6598  0.6135
 3312WAT      O25934   0.029   3.376   1.366 -0.1452  0.5167  0.2198
 3312WAT     H125935   0.048   3.468   1.384  0.1572  0.2899  1.1159
 3312WAT     H225936   0.052   3.331   1.447  0.3059 -0.4282 -0.4182
 3313WAT      O25937   1.951   0.154   2.017 -0.4626  0.4635  0.0381
 3313WAT     H125938   2.038   0.115   2.030 -0.5928 -1.2184 -3.1883
 3313WAT     H225939   1.961   0.245   2.046  1.5973 -0.3282  2.1280
 3314WAT      O25940   3.114   6.206   1.276  0.0814  0.1351 -0.0091
 3314WAT     H125941   3.193   6.257   1.296 -0.5133  1.7627 -1.5362
 3314WAT     H225942   3.062   6.264   1.220 -2.5907 -0.5505  1.5564
 3315WAT      O25943   0.602   0.293   0.767 -0.0787  0.2751 -0.5591
 3315WAT     H125944   0.571   0.346   0.693 -1.8589  0.1654  0.0604
 3315WAT     H225945   0.526   0.241   0.793  0.6409 -0.0195  1.0847
 3316WAT      O25946   1.252   0.001   6.473  0.1050 -0.1823  0.1395
 3316WAT     H125947   1.276   0.031   6.385  1.7168 -2.3142 -0.2479
 3316WAT     H225948   1.158   0.018   6.479  0.3152  1.8313 -1.1999
 3317WAT      O25949   2.136   1.556   0.376 -0.7735  0.1765 -0.3427
 3317WAT     H125950   2.191   1.577   0.451 -0.3875  1.2365 -0.9028
 3317WAT     H225951   2.116   1.463   0.386  0.3852 -0.0151  0.3395
 3318WAT      O25952   1.357   4.034   1.718  0.2070  0.2329 -0.0946
 3318WAT     H125953   1.262   4.029   1.725  0.2207  0.4454  0.3038
 3318WAT     H225954   1.387   3.944   1.720 -0.0139  0.1458 -0.6509
 3319WAT      O25955   2.361   6.017   1.362  0.8219 -0.4416 -0.2109
 3319WAT     H125956   2.407   6.020   1.445  0.6238  0.3140 -0.1181
 3319WAT     H225957   2.415   6.069   1.302  0.0651  0.5123 -0.0799
 3320WAT      O25958   1.864   2.543   6.389 -0.0066  0.2553 -0.1738
 3320WAT     H125959   1.953   2.508   6.382 -0.1117 -0.7823  2.4540
 3320WAT     H225960   1.821   2.513   6.309  1.4707 -0.9030 -0.5970
 3321WAT      O25961   4.533   1.904   6.508  0.2442 -0.2161 -0.1012
 3321WAT     H125962   4.535   1.963   6.584 -0.7431 -0.8131  0.4055
 3321WAT     H225963   4.568   1.957   6.437  3.0293 -0.2305  1.1422
 3322WAT      O25964   3.078   6.175   6.643 -0.0829 -0.1749  0.4646
 3322WAT     H125965   2.983   6.183   6.643 -0.0038  1.1795 -0.9498
 3322WAT     H225966   3.095   6.099   6.588 -0.3243  0.4969 -0.5685
 3323WAT      O25967   2.785   0.969   1.807 -0.0063  0.0142 -0.0297
 3323WAT     H125968   2.764   0.880   1.778 -0.0882  0.2320 -0.6754
 3323WAT     H225969   2.857   0.958   1.869  0.7864 -0.4286 -1.0019
 3324WAT      O25970   1.744   4.880   5.988 -0.3258 -0.0221 -0.5299
 3324WAT     H125971   1.723   4.942   5.919  2.7143  2.5918  0.6298
 3324WAT     H225972   1.825   4.838   5.958 -1.4742 -2.3522 -0.5569
 3325WAT      O25973   3.635   4.922   2.164 -0.3205  0.0604 -0.3288
 3325WAT     H125974   3.593   4.845   2.204  2.1233 -0.7116  0.9824
 3325WAT     H225975   3.714   4.887   2.123  0.8813  1.8633  0.3327
 3326WAT      O25976   0.406   0.463   5.550  0.4203 -0.3829 -0.2331
 3326WAT     H125977   0.440   0.413   5.625 -1.3899 -1.0020  0.2116
 3326WAT     H225978   0.368   0.541   5.590 -1.1896 -1.0503 -0.3969
 3327WAT      O25979   0.873   4.381   1.321  0.2270 -0.0136  0.1320
 3327WAT     H125980   0.851   4.370   1.414 -0.6268 -0.4431 -0.1107
 3327WAT     H225981   0.962   4.348   1.314 -0.4747 -2.1316  0.4042
 3328WAT      O25982   1.265   2.937   7.616  0.4140  0.1647 -0.1417
 3328WAT     H125983   1.239   2.896   7.534 -0.9785 -0.2031  0.4577
 3328WAT     H225984   1.235   3.028   7.607  2.7606  0.9002 -1.1366
 3329WAT      O25985   3.735   2.434   1.646 -0.4028  0.3791  0.7018
 3329WAT     H125986   3.732   2.362   1.583  0.4345  0.3588  0.6729
 3329WAT     H225987   3.649   2.433   1.688 -0.2998 -0.8458  0.9204
 3330WAT      O25988   2.759   5.192   7.020  0.1982 -0.1706  0.0796
 3330WAT     H125989   2.698   5.262   7.042  0.7184  0.0486  0.8396
 3330WAT     H225990   2.782   5.209   6.928  1.2117  1.3613  0.5746
 3331WAT      O25991   4.693   1.865   0.593 -0.6938 -0.3196 -0.5585
 3331WAT     H125992   4.663   1.844   0.681  0.7050  0.5991  0.1778
 3331WAT     H225993   4.615   1.855   0.538 -2.0712  0.8500  1.0611
 3332WAT      O25994   3.649   2.672   0.657  0.2106  0.3362 -0.2391
 3332WAT     H125995   3.714   2.726   0.703  1.4844 -1.2905 -0.0296
 3332WAT     H225996   3.625   2.724   0.580  0.6426  1.6190  0.4617
 3333WAT      O25997   1.756   0.782   6.853 -0.3332 -0.1183  0.5024
 3333WAT     H125998   1.694   0.848   6.884  0.0245  0.6613 -0.4215
 3333WAT     H225999   1.701   0.708   6.828 -0.9679  0.7839 -0.8758
 3334WAT      O26000   3.627   1.653   0.639 -0.4043  0.1479  0.2673
 3334WAT     H126001   3.575   1.672   0.716 -1.8682 -0.4411 -0.5354
 3334WAT     H226002   3.681   1.731   0.625 -0.4123  0.4063  1.6352
 3335WAT      O26003   5.962   1.135   2.010 -0.0669  0.0631  0.2842
 3335WAT     H126004   6.030   1.178   1.958 -0.0667 -1.7514 -1.3214
 3335WAT     H226005   5.919   1.206   2.058 -0.5398  1.9765 -2.7481
 3336WAT      O26006   4.667   2.232   6.415  0.5317  0.1254 -0.1327
 3336WAT     H126007   4.627   2.280   6.343 -0.1866 -1.2044 -0.6524
 3336WAT     H226008   4.666   2.140   6.387 -0.1216 -0.4914  1.7291
 3337WAT      O26009   1.036   5.307   1.930  0.1209  0.1292 -0.4120
 3337WAT     H126010   0.956   5.310   1.983 -0.7050 -0.5181 -1.5604
 3337WAT     H226011   1.084   5.386   1.954 -1.4279  1.1625 -0.5296
 3338WAT      O26012   1.298   5.664   7.923  0.2917  0.3820 -0.1678
 3338WAT     H126013   1.337   5.736   7.873 -0.7755 -0.3944 -2.2178
 3338WAT     H226014   1.372   5.608   7.945  0.9035  1.2151 -0.0417
 3339WAT      O26015   1.002   4.543   6.188 -0.0396  0.3556  0.0197
 3339WAT     H126016   1.016   4.454   6.154 -0.4785  0.5532 -0.7012
 3339WAT     H226017   0.907   4.552   6.192 -0.1896  2.1217 -3.6371
 3340WAT      O26018   5.472   3.466   6.487  0.1299 -0.0376  0.2992
 3340WAT     H126019   5.486   3.489   6.395  1.9946 -1.5352  0.1484
 3340WAT     H226020   5.511   3.379   6.496 -0.0612  0.0519  2.5050
 3341WAT      O26021   0.044   3.805   0.042 -0.5836  0.1270  0.2445
 3341WAT     H126022  -0.037   3.757   0.027 -1.3796  0.9698  1.7164
 3341WAT     H226023   0.060   3.852  -0.041 -0.2809 -1.8702 -0.8845
 3342WAT      O26024   5.102   6.219   7.256 -0.1587  0.2608 -0.2689
 3342WAT     H126025   5.110   6.272   7.177 -0.4557  0.7760  0.0406
 3342WAT     H226026   5.145   6.137   7.235 -0.5914  0.2433 -1.1090
 3343WAT      O26027   4.161   3.368   1.435  0.0121 -0.1196  0.2444
 3343WAT     H126028   4.127   3.296   1.382  0.2002 -1.3673  1.7759
 3343WAT     H226029   4.090   3.388   1.496  0.2788  0.4545  0.3674
 3344WAT      O26030   4.856   2.058   0.948 -0.2695  0.5835 -0.0524
 3344WAT     H126031   4.857   2.140   0.997 -0.3463  0.6337 -0.1329
 3344WAT     H226032   4.947   2.045   0.921 -0.3337  0.8687 -0.4110
 3345WAT      O26033   3.568   4.814   7.310 -0.1203  0.6625  0.4269
 3345WAT     H126034   3.607   4.783   7.393  1.3589 -2.7674 -1.3326
 3345WAT     H226035   3.615   4.894   7.290  0.5735  0.7332  2.1368
 3346WAT      O26036   3.303   3.843   1.389 -0.1788  0.6039  0.4146
 3346WAT     H126037   3.329   3.931   1.415  0.1987 -0.0757  2.5252
 3346WAT     H226038   3.216   3.831   1.427 -0.8678  0.5528 -1.1035
 3347WAT      O26039   1.279   0.567   0.766  0.1745  0.0976  0.6110
 3347WAT     H126040   1.184   0.570   0.757  0.2494  1.0747 -0.0666
 3347WAT     H226041   1.299   0.477   0.792 -0.8595 -0.3535 -0.1265
 3348WAT      O26042   3.117   4.791   5.917  0.0355 -0.1936  0.2560
 3348WAT     H126043   3.148   4.781   5.827  0.5393  0.0196  0.4048
 3348WAT     H226044   3.041   4.849   5.909 -0.3770 -0.7627 -0.1122
 3349WAT      O26045   0.153   1.518   0.364  0.1401  0.0961 -0.2816
 3349WAT     H126046   0.231   1.471   0.392 -0.3627  0.0369  1.1099
 3349WAT     H226047   0.177   1.610   0.370  0.0495  0.0851  0.3814
 3350WAT      O26048   1.450   0.445   7.899 -0.5251  0.6288  0.5837
 3350WAT     H126049   1.527   0.491   7.933 -0.0269  1.1328 -1.1153
 3350WAT     H226050   1.376   0.491   7.937 -0.0079  1.8721  0.1505
 3351WAT      O26051   3.793   1.897   6.990  0.3656 -0.2050  0.1024
 3351WAT     H126052   3.843   1.917   7.069  0.2300  0.4625  0.0284
 3351WAT     H226053   3.709   1.941   7.004  0.8817  1.2413 -1.0689
 3352WAT      O26054   5.362   0.390   1.259  0.0073  0.3247  0.0619
 3352WAT     H126055   5.366   0.404   1.354 -0.2334 -1.6215  0.3957
 3352WAT     H226056   5.313   0.309   1.248  0.5414  0.2011 -1.7073
 3353WAT      O26057   3.728   5.430   6.922 -0.3646 -0.3688  0.0926
 3353WAT     H126058   3.753   5.410   6.832 -0.8939 -0.0442 -0.1319
 3353WAT     H226059   3.732   5.525   6.928 -2.2764 -0.2182 -0.2049
 3354WAT      O26060   5.481   6.189   0.140 -0.2659  0.1109 -0.0851
 3354WAT     H126061   5.459   6.204   0.232 -0.5237  0.3509 -0.1854
 3354WAT     H226062   5.398   6.196   0.094 -0.4539 -1.8089 -0.1136
 3355WAT      O26063   5.958   5.981   0.020  0.2261  0.5470 -0.5909
 3355WAT     H126064   5.928   5.904  -0.028  2.0777 -0.9752  0.5640
 3355WAT     H226065   5.888   5.998   0.084  1.9175 -3.6220  2.8503
 3356WAT      O26066   2.131   1.348   6.018 -0.3667  0.4718  0.2744
 3356WAT     H126067   2.223   1.324   6.005 -0.8518 -1.1593 -0.4443
 3356WAT     H226068   2.084   1.305   5.947 -1.6320  1.8244  0.2301
 3357WAT      O26069   5.884   4.801   0.259 -0.3106 -0.1649  0.5596
 3357WAT     H126070   5.844   4.887   0.275 -0.4595  0.1548 -1.3074
 3357WAT     H226071   5.811   4.739   0.267 -1.0563  0.3021 -1.6879
 3358WAT      O26072   1.768   4.056   7.427  0.0015  0.8099 -0.3639
 3358WAT     H126073   1.677   4.027   7.431  0.0880  0.5326 -0.4039
 3358WAT     H226074   1.779   4.087   7.337  0.3541 -0.5178 -0.8107
 3359WAT      O26075   2.613   5.674   0.017  0.5114 -0.5083  0.1253
 3359WAT     H126076   2.675   5.738  -0.018  0.5519 -1.6968 -2.1680
 3359WAT     H226077   2.664   5.594   0.028  0.1688 -0.5322  1.6940
 3360WAT      O26078   6.034   4.857   1.505 -0.1138  0.2696  0.3375
 3360WAT     H126079   6.092   4.781   1.505  0.8389  0.9699  0.1032
 3360WAT     H226080   6.041   4.892   1.416  1.8376  2.3427  1.1968
 3361WAT      O26081   3.845   2.773   7.615 -0.0698  0.4964 -0.1700
 3361WAT     H126082   3.867   2.860   7.650 -0.2750  0.0426  1.1417
 3361WAT     H226083   3.928   2.725   7.618 -0.0909  0.4548 -0.2794
 3362WAT      O26084   3.868   0.777   1.669 -1.0264 -0.4671 -0.3919
 3362WAT     H126085   3.962   0.776   1.687 -0.5731  1.4831 -2.1663
 3362WAT     H226086   3.829   0.819   1.745 -0.1561  0.7594 -0.5981
 3363WAT      O26087   0.836   2.626   0.068  0.0732 -0.0876  0.3695
 3363WAT     H126088   0.793   2.555   0.020 -0.1201  0.5842 -0.4757
 3363WAT     H226089   0.894   2.581   0.130  2.1121 -1.0063 -2.0632
 3364WAT      O26090   5.736   0.239   0.407 -0.1080 -0.8190  0.7469
 3364WAT     H126091   5.830   0.252   0.419 -0.4914  1.4628  1.8314
 3364WAT     H226092   5.726   0.145   0.397  2.2566 -1.1460  0.8309
 3365WAT      O26093   5.862   1.309   1.268  0.1413 -0.1382  0.1153
 3365WAT     H126094   5.818   1.385   1.304 -0.5788 -0.5847  0.2029
 3365WAT     H226095   5.819   1.234   1.310 -0.7147 -0.6852 -1.6313
 3366WAT      O26096   5.829   1.863   1.161 -0.0663  0.3946  0.2223
 3366WAT     H126097   5.796   1.807   1.091  1.4510 -0.8153  0.4087
 3366WAT     H226098   5.753   1.915   1.188 -2.2731 -3.1354  1.5410
 3367WAT      O26099   0.881   4.154   5.663  0.7217  0.0825 -0.0663
 3367WAT     H126100   0.808   4.123   5.608 -0.3915 -2.1340  2.4372
 3367WAT     H226101   0.955   4.099   5.637  1.3129  1.6829 -1.9471
 3368WAT      O26102   5.216   2.229   1.277 -0.2852  0.1011 -0.6237
 3368WAT     H126103   5.264   2.282   1.213 -1.3783 -0.6254 -2.1041
 3368WAT     H226104   5.236   2.138   1.252 -1.0120 -0.1902 -0.1612
 3369WAT      O26105   2.111   5.664   1.087  0.3509 -0.5385 -0.2471
 3369WAT     H126106   2.108   5.760   1.083  0.9856 -0.5484 -1.4282
 3369WAT     H226107   2.091   5.636   0.998 -1.1597 -1.5718  0.3902
 3370WAT      O26108   5.713   5.791   5.907 -0.0177 -0.4558  0.3688
 3370WAT     H126109   5.697   5.884   5.889  0.8497 -0.0953  1.3842
 3370WAT     H226110   5.628   5.757   5.934 -0.1204  0.3025  1.0374
 3371WAT      O26111   2.459   5.063   7.804  0.2607 -0.3078  0.0610
 3371WAT     H126112   2.491   4.976   7.780  1.2809 -0.1138  0.6962
 3371WAT     H226113   2.497   5.122   7.739 -0.3708 -0.3164 -0.3247
 3372WAT      O26114   1.319   5.424   6.273 -0.5103  0.0589  0.1659
 3372WAT     H126115   1.410   5.430   6.244 -1.1062  1.2412 -1.6521
 3372WAT     H226116   1.278   5.504   6.240 -2.8367 -1.7083 -1.5244
 3373WAT      O26117   2.508   3.333   6.973 -0.1349  0.5453  0.6335
 3373WAT     H126118   2.511   3.318   7.067  0.1747  1.1254  0.7228
 3373WAT     H226119   2.526   3.427   6.963  0.8734  0.2950 -0.0554
 3374WAT      O26120   4.860   6.225   7.103 -0.1138 -0.0151  0.2497
 3374WAT     H126121   4.933   6.203   7.161  1.2572 -1.4386 -1.8846
 3374WAT     H226122   4.872   6.318   7.084 -1.2622  0.8079  3.0268
 3375WAT      O26123   2.513   2.978   0.364  0.3579 -0.2394 -0.6683
 3375WAT     H126124   2.511   3.006   0.273  2.9435 -0.4349 -0.8586
 3375WAT     H226125   2.521   3.059   0.414  1.5078 -0.2603 -0.8034
 3376WAT      O26126   0.262   2.686   6.953 -0.9753 -0.5514 -0.3696
 3376WAT     H126127   0.345   2.642   6.933 -2.0950 -3.8973  1.6913
 3376WAT     H226128   0.211   2.678   6.872  0.0127 -0.0064 -1.0818
 3377WAT      O26129   4.586   6.044   0.498 -0.4028  0.7742 -0.8989
 3377WAT     H126130   4.494   6.019   0.500 -0.6110  1.5698 -0.0662
 3377WAT     H226131   4.629   5.974   0.448 -1.3095 -0.0592 -0.5348
 3378WAT      O26132   5.217   4.518   6.445 -0.5992 -0.8081  0.1022
 3378WAT     H126133   5.144   4.561   6.488 -1.9055 -0.4539 -2.3127
 3378WAT     H226134   5.179   4.476   6.368  1.4976 -1.9873 -0.3766
 3379WAT      O26135   5.324   4.173   7.421 -0.2319 -0.7348 -0.2652
 3379WAT     H126136   5.417   4.153   7.421 -0.1002 -0.2618 -1.8899
 3379WAT     H226137   5.298   4.169   7.513  1.3818 -0.8614  0.2036
 3380WAT      O26138   2.331   5.971   2.247 -0.1928  0.1816  0.3853
 3380WAT     H126139   2.359   5.880   2.238 -0.7764  0.0262  0.0679
 3380WAT     H226140   2.374   6.017   2.175 -0.2416  0.0714  0.2858
 3381WAT      O26141   1.626   1.985   7.819  0.0760 -0.0983  0.7302
 3381WAT     H126142   1.565   2.059   7.824  0.8051  0.4901  1.0916
 3381WAT     H226143   1.644   1.975   7.726 -0.3004 -0.0545  0.6488
 3382WAT      O26144   2.665   5.539   1.575  0.2554 -0.7189  0.1346
 3382WAT     H126145   2.755   5.555   1.603  0.2715  0.3759 -0.5173
 3382WAT     H226146   2.652   5.597   1.501 -0.6018 -1.7621 -0.5547
 3383WAT      O26147   2.156   2.432   6.050  0.3769 -0.0896 -0.0194
 3383WAT     H126148   2.215   2.363   6.019  1.5686  0.3805  1.0479
 3383WAT     H226149   2.196   2.513   6.019  0.0418  0.2176  0.3419
 3384WAT      O26150   1.205   5.810   7.299 -0.7011 -0.3005 -0.6072
 3384WAT     H126151   1.195   5.717   7.318  0.4764 -0.0908  1.2933
 3384WAT     H226152   1.283   5.815   7.245 -0.9102 -0.4127 -0.9276
 3385WAT      O26153   1.157   4.854   2.051 -0.3442  0.4538 -0.0960
 3385WAT     H126154   1.222   4.827   1.986  0.3773  0.0731  0.7699
 3385WAT     H226155   1.180   4.945   2.071 -0.4876  0.5309 -0.2823
 3386WAT      O26156   5.730   3.490   6.077 -0.1180  0.6810 -0.5095
 3386WAT     H126157   5.815   3.521   6.047  1.3914 -1.8293  0.8295
 3386WAT     H226158   5.697   3.436   6.005  1.1763 -1.2481  0.2516
 3387WAT      O26159   2.570   2.347   0.958 -0.2195  0.0882 -0.3844
 3387WAT     H126160   2.650   2.394   0.935 -0.3979  0.0484 -1.1099
 3387WAT     H226161   2.599   2.265   0.997  0.0987  0.7531  0.8404
 3388WAT      O26162   1.452   3.904   1.432  1.0486  0.2772  0.1743
 3388WAT     H126163   1.399   3.856   1.368  0.7088  1.4363 -0.4235
 3388WAT     H226164   1.426   3.866   1.517 -1.0698  1.0944 -0.0466
 3389WAT      O26165   1.713   2.222   7.602  0.4948 -0.4089  0.6574
 3389WAT     H126166   1.630   2.182   7.575  0.9261 -2.0576  1.6917
 3389WAT     H226167   1.781   2.171   7.558  1.0247  0.1559  0.7985
 3390WAT      O26168   5.777   6.149   0.774 -0.1562  0.0635 -0.4952
 3390WAT     H126169   5.695   6.113   0.742 -0.7513 -0.4176  1.4243
 3390WAT     H226170   5.840   6.134   0.703 -0.7940 -3.1419 -0.5151
 3391WAT      O26171   5.654   4.909   5.878 -0.1139 -0.2771 -0.1891
 3391WAT     H126172   5.590   4.966   5.834 -1.2129 -0.2015  1.4344
 3391WAT     H226173   5.624   4.820   5.857 -0.5949 -0.2418  0.3311
 3392WAT      O26174   1.421   5.000   6.857  0.6335 -0.5432 -0.1402
 3392WAT     H126175   1.445   5.076   6.805 -0.6994 -0.2626 -0.3792
 3392WAT     H226176   1.338   5.024   6.898  1.4597 -0.9010  1.8523
 3393WAT      O26177   5.322   4.369   0.652 -0.2381 -0.1762  0.2224
 3393WAT     H126178   5.367   4.356   0.736 -0.9075 -1.5025  0.4025
 3393WAT     H226179   5.275   4.452   0.663 -1.1739 -0.8480  1.5754
 3394WAT      O26180   4.093   1.573   7.512 -0.1281  0.1282  0.4434
 3394WAT     H126181   4.130   1.628   7.580  2.5805 -0.0125 -0.7546
 3394WAT     H226182   4.101   1.625   7.432  0.4636 -1.1509 -0.3663
 3395WAT      O26183   0.672   4.049   1.145  0.9298 -0.0466  0.0616
 3395WAT     H126184   0.735   4.055   1.217  0.5937 -1.2420  0.4887
 3395WAT     H226185   0.587   4.038   1.188  0.1845  2.7714 -0.4781
 3396WAT      O26186   0.499   1.590   0.937  0.4511 -0.1556 -0.6071
 3396WAT     H126187   0.586   1.627   0.947  0.1362  0.3669  0.3392
 3396WAT     H226188   0.451   1.654   0.885 -0.4649  1.4986  2.0690
 3397WAT      O26189   1.625   4.655   6.334 -0.0933 -0.3444 -0.2485
 3397WAT     H126190   1.558   4.605   6.380 -0.9199  2.0137  1.2746
 3397WAT     H226191   1.708   4.621   6.368 -0.6297 -0.7098  0.7162
 3398WAT      O26192   4.569   6.139   0.815  0.0484 -0.4044 -0.8019
 3398WAT     H126193   4.583   6.149   0.720  1.7273 -3.0801 -0.9294
 3398WAT     H226194   4.583   6.046   0.832 -1.0297 -0.1480  1.9849
 3399WAT      O26195   6.102   4.850   6.441  0.1072  0.2758  0.0191
 3399WAT     H126196   6.014   4.888   6.445  0.5082  1.1671  1.9820
 3399WAT     H226197   6.160   4.924   6.461  1.2294 -0.5322 -0.1706
 3400WAT      O26198   5.481   5.605   6.828 -0.1189 -1.3412  0.1698
 3400WAT     H126199   5.425   5.549   6.774 -1.5461 -1.1181  1.3492
 3400WAT     H226200   5.538   5.649   6.765 -0.9257 -1.9578 -1.0473
 3401WAT      O26201   1.823   4.079   1.896  0.1692  0.1480  0.2975
 3401WAT     H126202   1.812   4.091   1.802 -1.1458 -0.1722  0.3956
 3401WAT     H226203   1.771   4.002   1.917  0.4911  0.1806  1.2808
 3402WAT      O26204   3.751   2.451   0.869 -0.4766  0.0574 -0.3242
 3402WAT     H126205   3.752   2.528   0.927  1.4172 -0.7598  0.8202
 3402WAT     H226206   3.748   2.376   0.928  0.9960 -0.7978 -1.2663
 3403WAT      O26207   5.321   5.455   6.636 -0.3047  0.0617  0.1572
 3403WAT     H126208   5.325   5.530   6.576  0.2953 -0.7384 -0.8369
 3403WAT     H226209   5.292   5.382   6.582  1.1388 -0.8907  0.5876
 3404WAT      O26210   5.909   0.603   5.901 -0.0769  0.1940 -0.0443
 3404WAT     H126211   5.926   0.608   5.995  2.0266  0.0940 -0.3673
 3404WAT     H226212   5.845   0.532   5.891  0.4306 -0.4652  1.2229
 3405WAT      O26213   2.145   4.586   7.683  0.5817 -0.1852 -0.5892
 3405WAT     H126214   2.201   4.640   7.739  0.8344 -0.0349 -0.9873
 3405WAT     H226215   2.068   4.641   7.667  0.7564 -0.0152 -0.8431
 3406WAT      O26216   2.995   3.539   1.056  0.1959 -0.0111  0.0619
 3406WAT     H126217   3.032   3.468   1.003 -0.8813  0.8245 -1.9553
 3406WAT     H226218   3.070   3.580   1.098  1.0521 -1.1065 -0.3533
 3407WAT      O26219   4.803   2.009   7.861  0.0029  0.3915 -0.2918
 3407WAT     H126220   4.754   2.045   7.934  1.8521  0.9118  0.7351
 3407WAT     H226221   4.830   1.922   7.891 -1.2884 -0.4249 -1.3436
 3408WAT      O26222   4.982   1.592   6.621 -0.5502 -0.0553  0.0351
 3408WAT     H126223   4.971   1.625   6.531  0.9763 -1.8194 -0.8701
 3408WAT     H226224   5.070   1.619   6.646 -1.8950  2.9239  2.2380
 3409WAT      O26225   2.331   1.467   7.759 -0.7665 -0.0812 -0.0842
 3409WAT     H126226   2.350   1.390   7.705 -0.9432 -0.2528  0.0957
 3409WAT     H226227   2.274   1.434   7.829 -0.1120  0.0258  0.5153
 3410WAT      O26228   1.611   5.899   0.366  0.0859  0.0925 -0.2463
 3410WAT     H126229   1.599   5.822   0.422  1.6728  0.7298  1.0287
 3410WAT     H226230   1.540   5.958   0.392  0.2028 -0.0286  0.3636
 3411WAT      O26231   5.655   3.842   1.525 -0.4050  0.5000  0.5374
 3411WAT     H126232   5.665   3.921   1.578 -0.2917 -0.0358  1.3322
 3411WAT     H226233   5.684   3.771   1.582  1.4356  0.0724 -0.8280
 3412WAT      O26234   3.477   3.825   7.742  0.1492 -0.4550 -0.3047
 3412WAT     H126235   3.444   3.756   7.799  0.3152 -1.1188 -1.0034
 3412WAT     H226236   3.524   3.779   7.673 -0.6575  0.2820 -1.3795
 3413WAT      O26237   5.018   4.483   6.776 -0.2959  0.2383  0.3563
 3413WAT     H126238   5.070   4.562   6.786  0.5537 -0.2533 -0.0305
 3413WAT     H226239   5.000   4.454   6.865 -1.4769  1.3958  0.5266
 3414WAT      O26240   2.796   5.506   6.156  0.4484 -0.3636  0.0470
 3414WAT     H126241   2.706   5.475   6.161  0.3785 -0.3821 -1.0857
 3414WAT     H226242   2.790   5.593   6.116  0.8659  0.0001  0.7561
 3415WAT      O26243   0.568   4.304   5.797 -0.2325 -0.5441 -0.5496
 3415WAT     H126244   0.545   4.214   5.817 -3.2487  0.5785  1.9109
 3415WAT     H226245   0.576   4.307   5.702  0.8009 -3.4782 -0.6618
 3416WAT      O26246   4.355   0.500   7.609 -0.5003 -0.5715 -0.2858
 3416WAT     H126247   4.429   0.443   7.627 -0.1639 -0.5284 -1.4691
 3416WAT     H226248   4.332   0.482   7.518  0.6788  2.2955 -1.2858
 3417WAT      O26249   1.076   2.518   6.578 -0.3513 -0.1025 -0.2593
 3417WAT     H126250   1.152   2.576   6.579 -0.1257 -0.3803  1.0598
 3417WAT     H226251   1.015   2.558   6.640 -0.8091 -0.4797 -0.4663
 3418WAT      O26252   2.526   1.164   0.787 -0.3823 -0.0541 -0.0932
 3418WAT     H126253   2.498   1.229   0.722  0.1793  1.1631  0.8369
 3418WAT     H226254   2.545   1.216   0.866  2.1255 -1.0812  0.0687
 3419WAT      O26255   1.150   5.776   6.670  0.3569  0.7254  0.2131
 3419WAT     H126256   1.182   5.719   6.600 -0.1575 -0.9833  1.2997
 3419WAT     H226257   1.065   5.807   6.640  0.9739  1.5661 -0.7138
 3420WAT      O26258   0.127   3.048   6.730  0.7122 -0.4448 -0.0927
 3420WAT     H126259   0.067   3.086   6.666  1.4241  2.3867  0.7669
 3420WAT     H226260   0.202   3.018   6.678  1.2050  1.6539 -0.6716
 3421WAT      O26261   2.193   2.194   0.696  0.1182  0.0472 -0.3772
 3421WAT     H126262   2.126   2.257   0.670 -0.1929 -0.4313 -0.7437
 3421WAT     H226263   2.147   2.130   0.751 -0.0000 -0.9458 -1.5916
 3422WAT      O26264   1.612   4.837   5.699  0.5863  0.2792 -0.0376
 3422WAT     H126265   1.604   4.931   5.716  0.5649  0.0608  1.2297
 3422WAT     H226266   1.705   4.824   5.679  0.5391  0.6024 -0.4797
 3423WAT      O26267   4.668   2.328   7.324  0.0434 -0.1626  0.3031
 3423WAT     H126268   4.748   2.310   7.373  0.5498 -0.1395 -0.4974
 3423WAT     H226269   4.621   2.245   7.323  0.0216 -0.1601  0.8289
 3424WAT      O26270   5.965   3.945   7.907 -0.5333 -0.3761  0.5748
 3424WAT     H126271   6.023   3.947   7.831 -0.6129 -0.4336  0.5123
 3424WAT     H226272   6.019   3.979   7.979 -0.2586 -0.9348  0.6328
 3425WAT      O26273   0.860   2.219   1.317  0.3401 -0.6973 -0.2650
 3425WAT     H126274   0.925   2.277   1.357  0.6559 -1.5046  0.4123
 3425WAT     H226275   0.885   2.131   1.345  0.3469 -1.2753 -1.9407
 3426WAT      O26276   2.511   1.446   0.852  0.1206  0.1792  0.2806
 3426WAT     H126277   2.576   1.494   0.801 -0.9801  1.5468  0.0784
 3426WAT     H226278   2.441   1.510   0.866 -2.0711 -1.7212 -1.1510
 3427WAT      O26279   0.166   5.265   1.890  0.3714 -0.4823 -0.1634
 3427WAT     H126280   0.102   5.336   1.891  0.9172  0.0462 -1.0808
 3427WAT     H226281   0.122   5.192   1.848  0.4270 -0.0480 -0.9974
 3428WAT      O26282   5.097   1.447   0.066  0.4365  0.4161 -0.1112
 3428WAT     H126283   5.042   1.388   0.116  0.7615 -0.9595 -1.3138
 3428WAT     H226284   5.036   1.501   0.016  0.1535 -0.2845 -0.5315
 3429WAT      O26285   1.467   0.815   6.681  0.0519  0.7217  0.2781
 3429WAT     H126286   1.449   0.742   6.739  0.4983  1.0218  0.7971
 3429WAT     H226287   1.399   0.879   6.701 -0.4101  0.4098 -0.2576
 3430WAT      O26288   4.101   2.235   7.550 -0.0639 -0.1354  0.1750
 3430WAT     H126289   4.073   2.287   7.626 -0.3411 -0.4965  0.3227
 3430WAT     H226290   4.021   2.194   7.517  0.3729 -1.9151  1.1555
 3431WAT      O26291   4.758   5.780   6.217 -0.0154  0.3062 -0.0545
 3431WAT     H126292   4.662   5.771   6.223 -0.0079  0.9562  1.9101
 3431WAT     H226293   4.776   5.865   6.256  1.4424 -0.1752  0.3792
 3432WAT      O26294   0.751   4.494   0.542 -0.1370  0.4526  0.1394
 3432WAT     H126295   0.827   4.452   0.582  0.3005 -0.3339 -1.4308
 3432WAT     H226296   0.699   4.422   0.507 -1.2701  1.0228  0.5906
 3433WAT      O26297   1.546   5.872   1.323 -0.0896 -0.4600  0.0247
 3433WAT     H126298   1.504   5.830   1.247 -0.1636 -1.0372  0.3740
 3433WAT     H226299   1.561   5.800   1.384 -1.6226  0.2390  1.3018
 3434WAT      O26300   4.540   5.856   5.914  0.1560  0.0986 -0.3994
 3434WAT     H126301   4.490   5.857   5.996 -1.3380 -2.8718 -1.1316
 3434WAT     H226302   4.601   5.929   5.923 -1.4124  1.2418  2.4069
 3435WAT      O26303   2.927   1.229   1.716  0.6384  0.3641  1.2170
 3435WAT     H126304   2.922   1.316   1.756 -0.8326  0.2259  1.3920
 3435WAT     H226305   2.840   1.193   1.728  0.2936  0.0715 -1.6215
 3436WAT      O26306   6.150   2.291   2.066 -0.7086 -0.1983  0.2630
 3436WAT     H126307   6.138   2.383   2.041 -1.4135 -0.3231  0.1416
 3436WAT     H226308   6.065   2.264   2.100 -0.6686 -0.9754 -0.2500
 3437WAT      O26309   2.583   4.755   6.624 -0.4018 -0.0575 -0.3001
 3437WAT     H126310   2.525   4.738   6.699  0.3836  1.0554  0.5832
 3437WAT     H226311   2.612   4.668   6.596 -1.4675 -0.5433  0.0615
 3438WAT      O26312   2.015   4.464   0.230  0.2716 -0.3883 -0.1640
 3438WAT     H126313   1.960   4.461   0.151  1.8892 -3.2240 -1.3277
 3438WAT     H226314   1.958   4.432   0.300 -0.1203 -1.5273 -0.9749
 3439WAT      O26315   4.622   0.364   1.819 -0.1555  0.2220 -0.7404
 3439WAT     H126316   4.660   0.362   1.907 -0.0431 -0.7865 -0.7915
 3439WAT     H226317   4.577   0.279   1.812  0.1365  0.1446 -1.7810
 3440WAT      O26318   2.001   3.929   7.189  0.1230  0.2087  0.4572
 3440WAT     H126319   2.062   3.955   7.258 -0.8819  0.5306  1.2366
 3440WAT     H226320   1.978   3.838   7.210 -0.9628  0.6251  1.1448
 3441WAT      O26321   0.536   1.259   7.837 -0.5437 -0.2345 -0.2823
 3441WAT     H126322   0.542   1.346   7.878  0.2130 -0.4690  0.1296
 3441WAT     H226323   0.446   1.254   7.804 -1.0660  0.1094  1.0275
 3442WAT      O26324   2.891   4.751   1.696  0.4015 -0.4200  0.2455
 3442WAT     H126325   2.805   4.788   1.716  0.4349 -0.6273  0.7862
 3442WAT     H226326   2.901   4.677   1.757  0.9707 -0.3823  0.2055
 3443WAT      O26327   3.533   0.191   1.398  0.6527  0.1623  0.6858
 3443WAT     H126328   3.519   0.102   1.365  1.5516  0.8203 -1.6722
 3443WAT     H226329   3.454   0.210   1.449  0.2295 -1.7920  0.8481
 3444WAT      O26330   0.181   4.956   1.287 -0.2379 -0.5591  0.4885
 3444WAT     H126331   0.211   4.945   1.377 -2.6831  0.2883  1.4932
 3444WAT     H226332   0.205   5.045   1.263  0.0879 -0.6660  0.4033
 3445WAT      O26333   1.715   4.438   1.614  0.6269  0.0157  0.1937
 3445WAT     H126334   1.692   4.438   1.521 -0.9630 -0.1501  0.5555
 3445WAT     H226335   1.754   4.524   1.630 -2.5321  1.5715  0.1262
 3446WAT      O26336   5.358   4.390   7.063  0.5559  0.3380 -0.6619
 3446WAT     H126337   5.359   4.369   6.970  2.0733  1.7165 -1.0041
 3446WAT     H226338   5.296   4.327   7.101 -0.5484  0.1137 -2.6629
 3447WAT      O26339   5.203   2.729   6.510 -0.3784  0.5771 -0.0361
 3447WAT     H126340   5.226   2.763   6.597 -1.8942 -0.9155  1.0061
 3447WAT     H226341   5.135   2.788   6.479 -0.5422  0.5308  0.2297
 3448WAT      O26342   5.152   2.335   5.957  0.2932  0.1180  0.3905
 3448WAT     H126343   5.104   2.365   6.035 -0.4046  0.1446 -0.0366
 3448WAT     H226344   5.243   2.356   5.975  0.3038 -0.8829  1.6809
 3449WAT      O26345   5.929   2.201   0.829  0.7538  0.1104  0.4667
 3449WAT     H126346   6.004   2.147   0.807  0.2897 -0.4645  0.2667
 3449WAT     H226347   5.965   2.272   0.883  1.3072 -0.6372  1.0983
 3450WAT      O26348   5.167   4.973   1.477 -0.0736 -0.4513  0.3655
 3450WAT     H126349   5.210   5.049   1.518  1.8685 -0.0705 -2.1017
 3450WAT     H226350   5.234   4.904   1.479 -0.2737 -0.7215 -1.1984
 3451WAT      O26351   1.918   0.935   0.577 -0.2379  0.4800  0.6438
 3451WAT     H126352   1.842   0.984   0.548 -0.7919 -0.9840 -0.4857
 3451WAT     H226353   1.941   0.879   0.502 -0.2733 -1.7200  2.1901
 3452WAT      O26354   2.616   1.687   5.503  0.7593 -0.5517 -0.3166
 3452WAT     H126355   2.551   1.749   5.472  0.3798 -0.4526  0.6409
 3452WAT     H226356   2.600   1.681   5.598  2.0234 -0.6602 -0.0948
 3453WAT      O26357   3.191   3.903   6.461  0.6496 -0.4924 -0.2086
 3453WAT     H126358   3.170   3.844   6.534 -0.9305  0.0014 -0.2214
 3453WAT     H226359   3.235   3.977   6.503  0.7712 -0.7286  0.0864
 3454WAT      O26360   0.660   5.979   7.643 -0.0196 -1.0048 -0.1540
 3454WAT     H126361   0.668   5.920   7.568  3.0822 -1.3205  0.2860
 3454WAT     H226362   0.648   5.921   7.718 -3.6884 -0.6766 -0.2738
 3455WAT      O26363   0.606   4.603   7.243  0.2677  0.0115 -0.3248
 3455WAT     H126364   0.586   4.627   7.334 -0.6791  1.5548 -0.8930
 3455WAT     H226365   0.654   4.678   7.208 -2.0812  0.8768 -1.9580
 3456WAT      O26366   5.461   5.093   5.740 -0.3283 -0.0326 -0.0508
 3456WAT     H126367   5.423   5.006   5.726  0.3844  0.0463 -2.9474
 3456WAT     H226368   5.413   5.150   5.681  0.7401  1.1185  0.1590
 3457WAT      O26369   0.367   0.940   7.307  0.0514  0.1920  0.1822
 3457WAT     H126370   0.322   0.878   7.364 -2.6190  2.2745  0.5822
 3457WAT     H226371   0.400   1.007   7.367 -0.5353  1.1049 -0.4878
 3458WAT      O26372   1.222   2.788   6.591  0.6862  0.3894  0.1999
 3458WAT     H126373   1.157   2.857   6.602  0.2068 -0.1808  0.9820
 3458WAT     H226374   1.262   2.806   6.506  0.7147  1.7480  0.4849
 3459WAT      O26375   1.465   0.022   6.027  0.3624  0.3791 -0.4470
 3459WAT     H126376   1.395   0.024   6.092  1.3301  1.0227  0.6428
 3459WAT     H226377   1.467  -0.068   5.995 -1.0228  0.3865 -0.5940
 3460WAT      O26378   4.224   0.240   1.815 -0.4429  0.6922 -0.4122
 3460WAT     H126379   4.232   0.318   1.760 -0.7551  0.8322 -0.2606
 3460WAT     H226380   4.313   0.204   1.817 -0.5882  0.2352 -1.6376
 3461WAT      O26381   3.190   6.120   0.245  0.7870 -0.5702 -0.3416
 3461WAT     H126382   3.139   6.201   0.235  2.4908  0.4067 -1.8773
 3461WAT     H226383   3.242   6.135   0.324  2.7806  0.9398 -1.8155
 3462WAT      O26384   3.660   0.464   0.231  0.4117 -0.2117 -0.0859
 3462WAT     H126385   3.642   0.429   0.144 -0.9173 -0.5346  0.2984
 3462WAT     H226386   3.590   0.527   0.246  0.6551 -0.1317  0.7412
 3463WAT      O26387   1.690   3.730   7.233 -0.1362  0.0134 -0.6722
 3463WAT     H126388   1.628   3.703   7.165  0.0202  0.3850 -0.9652
 3463WAT     H226389   1.637   3.779   7.296  0.0616  1.4100 -1.5524
 3464WAT      O26390   3.497   3.757   4.988  0.2292 -0.2410 -1.2719
 3464WAT     H126391   3.501   3.746   4.893  0.1237  0.0881 -1.3154
 3464WAT     H226392   3.587   3.744   5.017  0.3264  0.0136 -1.4569
 3465WAT      O26393   0.973   3.074   0.728 -0.5199  0.5221  0.0250
 3465WAT     H126394   1.010   3.162   0.738 -0.0455  0.2123  1.1420
 3465WAT     H226395   1.049   3.016   0.726 -0.8707 -0.1064  2.2103
 3466WAT      O26396   4.479   4.189   5.843  0.3065  0.4283 -0.1093
 3466WAT     H126397   4.559   4.229   5.877  0.5918 -0.8063  0.7449
 3466WAT     H226398   4.467   4.230   5.757  0.4059  2.5076  0.8214
 3467WAT      O26399   4.934   5.625   6.382 -0.0447  0.2138  0.0083
 3467WAT     H126400   5.012   5.680   6.391 -0.1274  0.0919  1.5952
 3467WAT     H226401   4.875   5.677   6.327  0.3122  1.2272  0.5653
 3468WAT      O26402   1.040   3.291   1.471 -0.1536 -0.0590 -0.3716
 3468WAT     H126403   1.004   3.244   1.396  0.4555 -0.0015 -0.7053
 3468WAT     H226404   1.125   3.251   1.486 -0.4722 -0.4143  0.6164
 3469WAT      O26405   5.721   6.040   0.144 -0.1216 -0.0466  0.4843
 3469WAT     H126406   5.687   6.113   0.093  0.4724  0.1491  0.3657
 3469WAT     H226407   5.646   5.982   0.155 -0.8579  1.0361  1.4052
 3470WAT      O26408   5.396   0.065   0.686 -0.1941 -0.3331  0.4583
 3470WAT     H126409   5.467   0.082   0.748 -1.8198  1.0378  2.1128
 3470WAT     H226410   5.367  -0.024   0.706  1.3737 -1.1377 -0.6509
 3471WAT      O26411   2.540   5.390   7.880  0.3498 -0.1278  0.4491
 3471WAT     H126412   2.520   5.438   7.799 -1.5924  1.4533  1.7496
 3471WAT     H226413   2.635   5.380   7.880  0.4825  0.6945 -1.5309
 3472WAT      O26414   2.367   2.735   7.065  0.4274 -0.5072  0.0005
 3472WAT     H126415   2.343   2.790   6.990  0.7355  0.9323  0.9097
 3472WAT     H226416   2.383   2.649   7.027 -2.6302 -0.6952 -1.1521
 3473WAT      O26417   0.322   2.582   1.582  0.0863 -0.4455 -0.4901
 3473WAT     H126418   0.235   2.543   1.577  1.0847 -2.7790 -0.6941
 3473WAT     H226419   0.306   2.671   1.613 -2.1605 -1.6245  2.1398
 3474WAT      O26420   2.491   1.129   2.011  0.2157  0.3170 -0.0514
 3474WAT     H126421   2.458   1.170   2.091  0.9255  1.7275 -0.4429
 3474WAT     H226422   2.584   1.115   2.028  0.1803 -0.2138 -0.2992
 3475WAT      O26423   0.035   3.731   6.023 -0.0919  0.0324 -0.2112
 3475WAT     H126424  -0.032   3.724   6.091  0.1549  2.1230  0.3380
 3475WAT     H226425  -0.005   3.693   5.945 -1.2660 -0.3105  0.5439
 3476WAT      O26426   5.077   5.851   6.375 -0.0054 -0.2026 -0.2811
 3476WAT     H126427   5.139   5.911   6.334  2.0761 -1.5515  0.7342
 3476WAT     H226428   5.009   5.908   6.412 -0.4266  1.2017 -3.0190
 3477WAT      O26429   0.298   4.865   6.545 -0.4194  0.1656  0.1514
 3477WAT     H126430   0.388   4.832   6.545 -0.8785 -1.2267  1.2930
 3477WAT     H226431   0.296   4.932   6.477  1.5909  0.5565  0.4344
 3478WAT      O26432   4.924   0.937   0.715 -0.8694  0.9889 -0.3744
 3478WAT     H126433   4.835   0.904   0.724 -0.4739 -0.3387 -1.0430
 3478WAT     H226434   4.969   0.871   0.662  0.7588  1.1585  0.7108
 3479WAT      O26435   2.090   4.316   6.776 -0.1174  0.5913 -0.1767
 3479WAT     H126436   2.080   4.236   6.828 -2.0924  0.9440  0.0595
 3479WAT     H226437   2.153   4.293   6.708 -1.6869 -1.6580 -1.0040
 3480WAT      O26438   2.098   5.581   6.624  0.0503  0.3008 -0.1252
 3480WAT     H126439   2.010   5.563   6.658 -0.1010 -2.8433 -1.7872
 3480WAT     H226440   2.157   5.548   6.692 -0.0209  1.5181  0.5589
 3481WAT      O26441   0.734   1.702   0.968 -0.5479  0.3170 -0.4792
 3481WAT     H126442   0.820   1.662   0.983 -0.4711  0.6706  0.0383
 3481WAT     H226443   0.744   1.792   0.999 -1.2701  0.2040  0.1099
 3482WAT      O26444   5.280   5.635   7.867  0.1085  0.2829 -0.4577
 3482WAT     H126445   5.199   5.592   7.840 -0.7334  1.5901 -0.0773
 3482WAT     H226446   5.282   5.626   7.962 -0.2689  1.3892 -0.3336
 3483WAT      O26447   2.798   3.633   5.545 -0.4897  0.3663  0.0080
 3483WAT     H126448   2.778   3.549   5.586 -0.6662  0.0475 -0.7182
 3483WAT     H226449   2.792   3.697   5.616  0.1922 -0.3050  0.6872
 3484WAT      O26450   3.356   0.616   7.594 -0.9278  0.3934 -0.0087
 3484WAT     H126451   3.408   0.673   7.652  3.3441 -0.0893 -2.8819
 3484WAT     H226452   3.350   0.533   7.641  0.9210  0.5002  0.4749
 3485WAT      O26453   3.447   0.629   5.689  0.4927  0.1492 -0.1210
 3485WAT     H126454   3.520   0.645   5.750 -2.2071  0.8858  3.2118
 3485WAT     H226455   3.444   0.534   5.681  0.6981  0.0016  1.2648
 3486WAT      O26456   2.135   0.422   6.821  0.2948  0.0636  0.3500
 3486WAT     H126457   2.184   0.402   6.740  0.8585  1.9758  0.1773
 3486WAT     H226458   2.097   0.508   6.806 -0.7622 -0.1500  1.6163
 3487WAT      O26459   3.458   5.051   0.178 -0.1170  0.9721 -0.2876
 3487WAT     H126460   3.440   4.957   0.171  0.3967  0.6736  1.9081
 3487WAT     H226461   3.478   5.077   0.088 -1.4897 -0.7373 -1.1575
 3488WAT      O26462   0.452   2.213   6.872  0.5860  0.1070  0.2235
 3488WAT     H126463   0.488   2.209   6.783  0.4699 -1.3209  0.2185
 3488WAT     H226464   0.527   2.191   6.928  0.1173 -1.4088  0.3029
 3489WAT      O26465   4.837   0.535   7.788  0.6362  0.4009 -0.1317
 3489WAT     H126466   4.927   0.517   7.814  0.1603 -0.0560  1.2997
 3489WAT     H226467   4.841   0.548   7.693  2.6712  3.3053  0.2266
 3490WAT      O26468   5.403   0.319   6.321  0.1979 -0.2514 -0.4649
 3490WAT     H126469   5.408   0.411   6.294 -0.9685 -0.1015 -0.1930
 3490WAT     H226470   5.474   0.276   6.271 -0.1585  0.5198 -1.6840
 3491WAT      O26471   4.082   3.265   6.466 -0.2875  0.0403  0.4989
 3491WAT     H126472   4.151   3.320   6.428 -0.4537  1.0453  1.5910
 3491WAT     H226473   4.038   3.323   6.528 -0.8860 -1.1610  1.2096
 3492WAT      O26474   4.193   4.342   1.782 -0.5864  0.4639  0.3734
 3492WAT     H126475   4.173   4.435   1.773 -1.8363  0.1135 -0.8370
 3492WAT     H226476   4.288   4.340   1.798 -0.5750  1.9451  0.6772
 3493WAT      O26477   2.566   2.017   6.205 -0.2270  0.5782 -0.2003
 3493WAT     H126478   2.637   1.955   6.189  1.5241  2.0683  1.3015
 3493WAT     H226479   2.547   2.056   6.120  0.0741 -0.5074 -0.7771
 3494WAT      O26480   2.156   2.806   0.601  0.2261 -0.0643 -0.0844
 3494WAT     H126481   2.107   2.779   0.679 -1.4442 -0.4990 -1.2413
 3494WAT     H226482   2.126   2.895   0.583 -0.7619 -0.6147 -1.2525
 3495WAT      O26483   4.762   0.073   7.875 -0.0416 -0.2895 -0.3332
 3495WAT     H126484   4.842   0.123   7.890  0.0950 -0.5687 -0.1037
 3495WAT     H226485   4.751   0.072   7.780 -0.2233  0.4430 -0.3220
 3496WAT      O26486   4.002   0.508   1.248  0.4309 -0.1787 -0.5729
 3496WAT     H126487   4.092   0.493   1.220  0.5000 -1.2952  0.1864
 3496WAT     H226488   4.008   0.579   1.312  0.5134  1.0267 -1.8685
 3497WAT      O26489   1.606   0.955   7.857  0.4562 -0.0052  0.0389
 3497WAT     H126490   1.645   0.964   7.770  1.2147  1.2724  0.4964
 3497WAT     H226491   1.531   1.014   7.856  0.6255  0.2174  0.3380
 3498WAT      O26492   0.317   5.800   7.539  0.3150 -0.4672 -0.7070
 3498WAT     H126493   0.370   5.742   7.594  2.1025 -0.2584 -2.1303
 3498WAT     H226494   0.339   5.888   7.568 -2.4415 -0.3384  1.4909
 3499WAT      O26495   1.666   1.699   7.206 -0.0748  0.4195 -0.2803
 3499WAT     H126496   1.673   1.631   7.139 -1.2751 -1.1574  1.1015
 3499WAT     H226497   1.737   1.760   7.186 -0.1838 -0.1557 -2.7534
 3500WAT      O26498   0.119   0.001   0.704  0.0076 -0.0130  0.6732
 3500WAT     H126499   0.116   0.032   0.795  0.3953 -4.3380  2.4089
 3500WAT     H226500   0.202  -0.047   0.699  0.1544  0.3991 -2.1517
 3501WAT      O26501   6.013   5.132   0.849  0.2356  0.3364 -0.0611
 3501WAT     H126502   6.020   5.148   0.943 -1.0238 -0.6983  0.2317
 3501WAT     H226503   6.098   5.158   0.814  0.6894  0.8259  1.3418
 3502WAT      O26504   5.779   3.739   1.293  0.2768  0.4139 -0.0581
 3502WAT     H126505   5.730   3.799   1.349  3.0370  0.9380  1.9399
 3502WAT     H226506   5.729   3.657   1.297 -1.2450  1.3285  0.6074
 3503WAT      O26507   0.207   3.648   0.690  0.3269 -0.3295  0.3859
 3503WAT     H126508   0.259   3.568   0.700 -0.5241 -1.2860 -1.9697
 3503WAT     H226509   0.230   3.680   0.603 -1.0440  0.7144  0.3846
 3504WAT      O26510   0.457   6.171   0.881  0.2840  0.3537  0.0793
 3504WAT     H126511   0.548   6.175   0.909 -0.0633 -0.4530  1.4262
 3504WAT     H226512   0.423   6.259   0.896 -0.1975 -0.2783  3.5270
 3505WAT      O26513   3.058   5.764   7.578 -0.0915  0.0441  0.5956
 3505WAT     H126514   3.101   5.780   7.494  0.4007  0.8554  0.9880
 3505WAT     H226515   2.966   5.746   7.555 -0.0720  0.7616 -0.0842
 3506WAT      O26516   3.052   0.511   0.774  0.4861  0.2090  0.3983
 3506WAT     H126517   3.061   0.587   0.832  2.6851  1.1206 -1.0292
 3506WAT     H226518   3.116   0.448   0.806 -0.0303 -0.3019  0.4415
 3507WAT      O26519   5.125   2.434   1.767  0.1475 -0.2978  0.1189
 3507WAT     H126520   5.110   2.361   1.827  1.7431 -0.6818  0.1151
 3507WAT     H226521   5.203   2.408   1.718 -1.2186 -0.0812 -2.2949
 3508WAT      O26522   3.700   3.835   0.034 -0.0444  0.1144 -0.3124
 3508WAT     H126523   3.688   3.805   0.124 -0.1499 -0.5618 -0.5503
 3508WAT     H226524   3.612   3.852   0.002 -0.0771 -0.5637 -0.5964
 3509WAT      O26525   4.917   3.318   1.387 -0.5535 -0.2662  0.5894
 3509WAT     H126526   4.973   3.381   1.434 -0.0746 -0.1736 -0.0951
 3509WAT     H226527   4.890   3.256   1.455  0.5995 -0.4623  0.8984
 3510WAT      O26528   3.088   1.251   1.203 -0.1734  0.3937  0.0797
 3510WAT     H126529   3.123   1.273   1.117 -0.2548  1.1864  0.2420
 3510WAT     H226530   3.025   1.181   1.186  0.4592 -0.0670 -0.3876
 3511WAT      O26531   4.304   4.898   1.067 -0.0127 -0.1750 -0.0561
 3511WAT     H126532   4.292   4.987   1.100 -0.8622 -0.2944 -0.0109
 3511WAT     H226533   4.217   4.859   1.073  0.2871 -0.9073 -0.3779
 3512WAT      O26534   2.747   5.030   2.223 -0.1551 -0.1148  0.1475
 3512WAT     H126535   2.823   5.058   2.173 -2.0374  0.9662 -2.2947
 3512WAT     H226536   2.717   5.109   2.267  0.6143 -0.7417  1.8905
 3513WAT      O26537   5.370   2.818   7.058 -0.7781  0.2154 -0.0778
 3513WAT     H126538   5.350   2.864   7.140 -0.3435  1.3609 -0.5820
 3513WAT     H226539   5.284   2.796   7.022 -1.0371  1.2794 -0.1577
 3514WAT      O26540   3.461   0.150   7.196 -0.3669  0.2204  0.1636
 3514WAT     H126541   3.554   0.146   7.175  0.0966  0.1567  2.0655
 3514WAT     H226542   3.456   0.202   7.276 -1.9607  0.1461  0.1465
 3515WAT      O26543   1.935   3.453   0.544  0.1334  0.0819  0.1153
 3515WAT     H126544   1.887   3.515   0.599 -0.7339  0.0561 -0.5887
 3515WAT     H226545   1.885   3.371   0.551  1.2709 -0.5536  1.0442
 3516WAT      O26546   3.240   3.885   0.856  0.6843  0.6948 -0.2380
 3516WAT     H126547   3.227   3.969   0.900 -0.5791 -0.4947  1.8209
 3516WAT     H226548   3.155   3.842   0.859  1.8791 -1.7824  1.2821
 3517WAT      O26549   4.780   4.958   0.767  0.5154  1.0844 -0.2292
 3517WAT     H126550   4.829   4.948   0.849  1.2300  0.6561 -0.7000
 3517WAT     H226551   4.715   4.888   0.769 -1.2269  2.6346  1.1635
 3518WAT      O26552   2.643   4.516   7.519 -0.0748  0.5002 -0.6392
 3518WAT     H126553   2.668   4.607   7.507 -0.1728  0.6284  0.1159
 3518WAT     H226554   2.672   4.494   7.607  2.0415 -0.8858 -1.6144
 3519WAT      O26555   1.365   4.434   0.754 -0.2790 -0.2050 -0.4171
 3519WAT     H126556   1.442   4.479   0.787  0.2333 -1.8346  0.7145
 3519WAT     H226557   1.357   4.464   0.663  2.7783 -1.2954 -1.1968
 3520WAT      O26558   0.154   5.805   6.598 -0.2372  0.1677 -0.6486
 3520WAT     H126559   0.072   5.780   6.642  0.1215 -1.3059 -0.7827
 3520WAT     H226560   0.150   5.760   6.514  1.4242 -1.2476 -0.0193
 3521WAT      O26561   2.897   5.592   6.631  0.4440  0.4447 -0.3826
 3521WAT     H126562   2.921   5.568   6.721 -1.2735 -0.1364 -0.0528
 3521WAT     H226563   2.898   5.510   6.582 -2.1489  0.1052 -0.0178
 3522WAT      O26564   6.121   0.812   1.708 -0.0393  0.0063 -0.2234
 3522WAT     H126565   6.183   0.878   1.678 -1.7443  1.2552 -1.1114
 3522WAT     H226566   6.058   0.859   1.762  0.3563 -1.4286  1.6044
 3523WAT      O26567   2.309   4.758   1.056  0.6507 -0.3106  0.0603
 3523WAT     H126568   2.228   4.727   1.015  0.7506  0.2424 -0.5572
 3523WAT     H226569   2.294   4.745   1.150  0.0557 -0.7044 -0.0802
 3524WAT      O26570   3.922   2.512   0.662 -0.0794 -0.0947 -0.4330
 3524WAT     H126571   3.855   2.509   0.730 -0.8318 -1.0862 -1.1860
 3524WAT     H226572   3.938   2.421   0.640  0.5538  0.1874 -1.2020
 3525WAT      O26573   2.936   3.664   6.133  1.2458  0.0693 -0.0408
 3525WAT     H126574   2.861   3.607   6.115  2.1134 -0.6942 -1.4894
 3525WAT     H226575   2.898   3.746   6.162 -0.1468 -0.4328 -0.3550
 3526WAT      O26576   1.633   5.540   1.028  0.2079 -0.3230 -0.0911
 3526WAT     H126577   1.648   5.597   1.103 -1.3379  0.4392 -0.3208
 3526WAT     H226578   1.705   5.476   1.031  0.6459  0.2044  1.5217
 3527WAT      O26579   3.973   1.540   6.194 -0.0393 -0.1329 -0.2548
 3527WAT     H126580   3.944   1.464   6.144 -1.1063  1.8994 -2.9590
 3527WAT     H226581   3.902   1.555   6.257 -0.1402 -0.9288 -0.1627
 3528WAT      O26582   1.169   1.722   6.985  0.0160 -0.6224  0.2799
 3528WAT     H126583   1.157   1.646   7.042 -2.8225 -0.1751  0.4393
 3528WAT     H226584   1.093   1.778   7.003  2.0983  2.4109  0.3263
 3529WAT      O26585   2.195   2.467   7.146  0.2642 -0.5080 -0.6437
 3529WAT     H126586   2.263   2.516   7.100 -0.3084 -1.3672 -2.5110
 3529WAT     H226587   2.230   2.454   7.234  2.0214  0.0117 -1.2258
 3530WAT      O26588   3.043   4.825   7.143  0.5100  0.4522 -0.2882
 3530WAT     H126589   2.951   4.797   7.138  0.0695  2.0157 -2.1745
 3530WAT     H226590   3.064   4.820   7.236 -1.2108 -0.7709  0.0915
 3531WAT      O26591   1.975   1.080   7.322 -0.4188 -0.0383  0.1786
 3531WAT     H126592   1.979   1.082   7.227 -0.0940  2.7729  0.1527
 3531WAT     H226593   1.894   1.128   7.343 -1.1187 -1.6316  1.3539
 3532WAT      O26594   5.578   5.011   0.759  0.1429  0.5823 -0.5282
 3532WAT     H126595   5.597   5.010   0.853 -0.9047  0.9714 -0.3000
 3532WAT     H226596   5.664   5.019   0.717  0.5201  1.8307  0.4355
 3533WAT      O26597   0.724   2.583   1.368  0.3088  0.1548 -0.9472
 3533WAT     H126598   0.810   2.583   1.325  0.2076  0.7310 -1.1510
 3533WAT     H226599   0.725   2.660   1.424  0.4375 -0.5867  0.0983
 3534WAT      O26600   3.504   5.892   7.791  0.0551  0.1457 -0.0584
 3534WAT     H126601   3.459   5.953   7.849 -1.2493 -0.9119  0.0818
 3534WAT     H226602   3.436   5.834   7.760  1.3827 -1.7449  0.4080
 3535WAT      O26603   1.666   1.342   6.612 -0.5004  0.5251 -0.6508
 3535WAT     H126604   1.645   1.254   6.579  1.7482  0.4240 -2.0737
 3535WAT     H226605   1.745   1.329   6.664 -0.2274  1.6805 -0.7636
 3536WAT      O26606   2.673   4.838   0.859  0.1345 -0.6268  0.6592
 3536WAT     H126607   2.687   4.902   0.928  0.6881 -1.6762  1.5527
 3536WAT     H226608   2.582   4.850   0.832  0.8659  2.1625 -0.9168
 3537WAT      O26609   3.349   3.178   0.719  0.2303  0.0773 -0.2070
 3537WAT     H126610   3.373   3.177   0.812 -0.7617 -1.2081  0.0702
 3537WAT     H226611   3.284   3.108   0.710 -1.3494  1.6045 -1.4381
 3538WAT      O26612   0.428   4.637   0.591  0.4707 -0.3872  0.5291
 3538WAT     H126613   0.373   4.564   0.621 -2.7711  1.3999 -0.5664
 3538WAT     H226614   0.420   4.636   0.496  1.2067  0.7773  0.4330
 3539WAT      O26615   3.635   4.761   1.493 -0.4188  0.3895  0.3023
 3539WAT     H126616   3.684   4.839   1.520 -2.3466  1.3107  1.3220
 3539WAT     H226617   3.629   4.768   1.398 -1.7015  2.2387  0.4692
 3540WAT      O26618   3.644   1.190   0.284  0.6056  0.1806 -0.1616
 3540WAT     H126619   3.564   1.187   0.231  0.4155 -2.4970  0.1218
 3540WAT     H226620   3.642   1.276   0.325 -1.6254  0.5877 -0.9743
 3541WAT      O26621   0.992   2.326   7.180  0.0231 -0.1176 -0.0059
 3541WAT     H126622   1.054   2.382   7.228  3.0219 -1.4019 -2.0939
 3541WAT     H226623   1.040   2.244   7.166 -2.4689 -1.4724 -1.1708
 3542WAT      O26624   5.438   3.005   1.052 -0.0319  0.1433 -0.4783
 3542WAT     H126625   5.389   3.059   1.114 -1.5329  0.7644 -2.0900
 3542WAT     H226626   5.492   2.948   1.106 -1.6661  0.2667  1.3966
 3543WAT      O26627   5.623   5.881   7.316  0.5710 -0.1640 -0.2507
 3543WAT     H126628   5.623   5.972   7.287 -1.4680  0.5950  1.8192
 3543WAT     H226629   5.579   5.882   7.401 -0.7155 -3.2716 -0.7243
 3544WAT      O26630   5.609   2.183   0.307  0.5742 -0.3941  0.2012
 3544WAT     H126631   5.679   2.242   0.279  0.1440  0.1934  0.3356
 3544WAT     H226632   5.621   2.175   0.401  0.3964 -0.1964  0.2429
 3545WAT      O26633   2.070   4.059   6.938 -0.2640  0.3813 -0.1152
 3545WAT     H126634   2.138   4.100   6.991 -0.4897 -0.3635  0.7742
 3545WAT     H226635   2.045   3.981   6.987 -1.7062  0.6061 -0.4454
 3546WAT      O26636   0.307   6.228   5.958 -0.3545  0.6621  0.2017
 3546WAT     H126637   0.294   6.165   5.887  1.1546 -3.2712  3.1023
 3546WAT     H226638   0.218   6.248   5.988 -0.8659 -0.3847 -0.5481
 3547WAT      O26639   2.869   0.781   0.080 -0.1726  0.0626  0.3497
 3547WAT     H126640   2.800   0.807   0.019  0.3882  1.8344  0.4142
 3547WAT     H226641   2.933   0.852   0.077  0.8393 -0.7315  1.5508
 3548WAT      O26642   0.228   4.158   0.258 -0.0647 -0.0921 -0.2509
 3548WAT     H126643   0.177   4.228   0.299 -0.7029 -1.0789  0.7033
 3548WAT     H226644   0.195   4.078   0.298  1.6921 -0.8385 -0.2102
 3549WAT      O26645   0.977   5.740   0.213 -0.7373  0.2713  0.4030
 3549WAT     H126646   1.027   5.663   0.185 -1.2102 -0.1553  0.7395
 3549WAT     H226647   0.965   5.790   0.132 -2.0839 -0.9537 -0.2016
 3550WAT      O26648   2.520   4.152   0.624  0.3653  0.0372  0.0139
 3550WAT     H126649   2.585   4.167   0.692  3.0770 -0.7901 -2.2136
 3550WAT     H226650   2.525   4.057   0.608 -0.9350  0.0720 -0.6835
 3551WAT      O26651   2.730   3.937   1.564  0.0352 -0.2707 -0.0222
 3551WAT     H126652   2.669   3.870   1.535 -0.1321 -0.1550  0.0561
 3551WAT     H226653   2.802   3.889   1.605  1.5271 -0.5960 -2.8105
 3552WAT      O26654   4.927   1.772   0.443 -0.0506  0.0516  0.3284
 3552WAT     H126655   4.858   1.811   0.497  0.2189  0.7264  0.1931
 3552WAT     H226656   4.883   1.703   0.394 -1.1756  1.9131 -1.4698
 3553WAT      O26657   0.442   0.006   6.179 -0.3242 -0.1623 -0.6524
 3553WAT     H126658   0.407  -0.001   6.090  1.6668  0.0870 -1.5071
 3553WAT     H226659   0.403   0.087   6.213 -0.1093  0.4503 -1.7941
 3554WAT      O26660   1.056   1.264   0.110 -0.1452 -0.2574  0.3665
 3554WAT     H126661   1.056   1.360   0.103  0.0004 -0.2711  0.1756
 3554WAT     H226662   0.969   1.243   0.141 -1.0358 -0.2326 -1.9113
 3555WAT      O26663   3.978   2.568   0.349 -0.4012 -0.4260 -0.3950
 3555WAT     H126664   3.973   2.550   0.443 -0.7458  0.7973 -0.1548
 3555WAT     H226665   3.910   2.633   0.334  0.9920  0.9497 -1.1025
 3556WAT      O26666   3.705   2.524   7.362 -0.4564 -0.1713  0.2024
 3556WAT     H126667   3.770   2.591   7.384 -0.7644 -0.0109  0.6203
 3556WAT     H226668   3.624   2.572   7.349 -0.2732 -0.2405 -1.4293
 3557WAT      O26669   2.805   0.390   1.758 -0.7037  0.1335 -0.1241
 3557WAT     H126670   2.864   0.395   1.833  1.0276 -2.3990 -1.1577
 3557WAT     H226671   2.721   0.424   1.790  0.0426 -0.5736  2.8471
 3558WAT      O26672   2.167   2.667   5.620  0.2712 -0.5995  0.5299
 3558WAT     H126673   2.096   2.695   5.678  0.0506  0.3287 -0.1666
 3558WAT     H226674   2.123   2.638   5.540  0.6854  1.1265 -0.3824
 3559WAT      O26675   2.337   1.383   6.345  0.0266 -0.5963  0.2253
 3559WAT     H126676   2.383   1.438   6.408  0.0713  0.9202 -1.0514
 3559WAT     H226677   2.393   1.385   6.267 -0.0073 -2.4418  0.1094
 3560WAT      O26678   0.678   5.659   0.902 -1.1382 -0.0144 -0.2113
 3560WAT     H126679   0.661   5.734   0.957 -2.3679 -1.6396  1.7635
 3560WAT     H226680   0.754   5.616   0.941 -0.1985  0.3728 -1.5485
 3561WAT      O26681   2.678   0.768   0.677 -0.2195 -0.2869 -0.4153
 3561WAT     H126682   2.601   0.783   0.731  0.3179  0.5223  0.1438
 3561WAT     H226683   2.750   0.756   0.739 -0.0473 -2.0779 -0.9081
 3562WAT      O26684   5.020   0.265   7.418  0.3851 -0.1487  0.0272
 3562WAT     H126685   5.005   0.283   7.325 -1.1931  0.8355  0.4412
 3562WAT     H226686   4.992   0.174   7.430 -2.1505  0.5457  0.0360
 3563WAT      O26687   2.806   3.551   0.121 -0.5865 -0.0012  0.4446
 3563WAT     H126688   2.782   3.524   0.032  0.5005 -0.0802  0.1579
 3563WAT     H226689   2.767   3.485   0.178 -0.2201 -0.6673 -0.0611
 3564WAT      O26690   1.899   1.619   5.458  0.1905 -0.4273  0.0795
 3564WAT     H126691   1.892   1.683   5.529 -0.2198 -1.3898  0.9285
 3564WAT     H226692   1.824   1.637   5.402  0.2247  0.0024  0.1667
 3565WAT      O26693   1.783   6.117   7.288  0.3164  0.9432  0.0113
 3565WAT     H126694   1.800   6.029   7.253 -1.9315  0.1282  0.7993
 3565WAT     H226695   1.737   6.162   7.217  0.0113  0.9169  0.1904
 3566WAT      O26696   1.856   0.915   6.618  0.1636 -0.6816  0.3916
 3566WAT     H126697   1.950   0.912   6.596 -0.1552 -2.0254 -0.9308
 3566WAT     H226698   1.851   0.873   6.704  0.8928  0.3517  0.9511
 3567WAT      O26699   0.304   4.688   1.781  0.1750 -0.3366 -0.5696
 3567WAT     H126700   0.232   4.695   1.844 -0.5627  1.9321 -1.5691
 3567WAT     H226701   0.382   4.709   1.832 -0.3183  0.6615 -0.1978
 3568WAT      O26702   2.216   0.230   0.199  0.4037  0.6757 -0.8506
 3568WAT     H126703   2.122   0.242   0.213  0.3084 -0.5861 -0.2269
 3568WAT     H226704   2.224   0.137   0.176  1.4593  0.8624 -1.2511
 3569WAT      O26705   2.020   0.661   6.803  0.1232 -0.3376  0.4187
 3569WAT     H126706   1.944   0.690   6.853  0.5395 -0.2406  1.0074
 3569WAT     H226707   1.985   0.639   6.717 -0.3808  0.8153  0.3169
 3570WAT      O26708   1.184   2.265   7.649 -0.2453 -0.1941 -0.3599
 3570WAT     H126709   1.197   2.242   7.557  1.3945  1.7570 -0.6828
 3570WAT     H226710   1.178   2.361   7.649 -0.8968 -0.1862  1.5164
 3571WAT      O26711   2.262   0.452   0.040  0.1165 -0.1571  0.4077
 3571WAT     H126712   2.355   0.472   0.047  0.0442  0.5220 -0.2931
 3571WAT     H226713   2.245   0.385   0.106  0.5750  1.5350  2.3306
 3572WAT      O26714   3.863   4.140   7.768 -0.3701  0.0143 -0.5530
 3572WAT     H126715   3.828   4.211   7.714 -0.5099  0.2407 -0.1684
 3572WAT     H226716   3.833   4.160   7.856 -2.8421 -2.0281 -0.8115
 3573WAT      O26717   1.496   0.207   0.570  0.2718 -0.0492  0.2003
 3573WAT     H126718   1.523   0.267   0.500 -0.0490 -0.3409 -0.1793
 3573WAT     H226719   1.483   0.262   0.646 -0.1660  0.3851 -0.1844
 3574WAT      O26720   2.903   5.241   1.682  0.5611  0.9445  0.0666
 3574WAT     H126721   2.972   5.275   1.738  0.2961  1.5201  0.0607
 3574WAT     H226722   2.868   5.165   1.729  0.8841  0.9345  0.2888
 3575WAT      O26723   2.657   1.510   1.659  0.4042 -0.7839  0.1354
 3575WAT     H126724   2.732   1.484   1.711  1.4322 -1.2188 -1.4873
 3575WAT     H226725   2.632   1.430   1.612 -0.0467 -0.2405 -0.5698
 3576WAT      O26726   5.831   2.360   6.322  0.1424 -0.1297 -0.0574
 3576WAT     H126727   5.750   2.313   6.340 -0.8046  1.4635  0.0973
 3576WAT     H226728   5.834   2.369   6.227 -0.0127  0.0454 -0.0468
 3577WAT      O26729   1.575   5.742   1.550  0.3178  0.5422  0.0863
 3577WAT     H126730   1.634   5.800   1.599  1.5666 -1.2215  0.7853
 3577WAT     H226731   1.523   5.698   1.618 -0.0702  0.2962 -0.3666
 3578WAT      O26732   3.545   4.897   6.147  0.0493 -0.1340  0.3559
 3578WAT     H126733   3.613   4.885   6.214  0.2527 -0.4197  0.1031
 3578WAT     H226734   3.548   4.816   6.096  0.0801  0.1951 -0.1664
 3579WAT      O26735   5.218   3.569   7.626 -0.0635  0.0630  0.1529
 3579WAT     H126736   5.183   3.567   7.715  0.9717  0.8051  0.5946
 3579WAT     H226737   5.182   3.649   7.588  0.7879  0.6115  0.4712
 3580WAT      O26738   4.417   4.883   6.931  0.4743 -0.4995  0.9199
 3580WAT     H126739   4.384   4.858   6.845  1.7505  0.3557  0.1626
 3580WAT     H226740   4.500   4.836   6.940  1.3412  0.9524  0.8047
 3581WAT      O26741   3.685   2.558   2.260  0.5116 -0.3113 -0.0360
 3581WAT     H126742   3.633   2.480   2.276  2.1226 -1.2187  1.0952
 3581WAT     H226743   3.621   2.628   2.248 -0.9514 -1.4475  0.8426
 3582WAT      O26744   2.787   1.175   0.096  0.4388 -0.4436 -0.1898
 3582WAT     H126745   2.767   1.091   0.054  1.1021 -0.3843 -0.6518
 3582WAT     H226746   2.835   1.224   0.029  1.1696 -0.1912  0.5017
 3583WAT      O26747   5.601   3.002   6.676 -0.0013 -0.2277 -0.1799
 3583WAT     H126748   5.621   2.995   6.770 -0.7476 -0.1218 -0.0095
 3583WAT     H226749   5.643   2.925   6.637 -0.0982 -0.5340  0.3115
 3584WAT      O26750   4.623   5.324   7.284 -0.0248 -0.2515 -0.5576
 3584WAT     H126751   4.607   5.322   7.378 -1.0306 -0.3443 -0.7270
 3584WAT     H226752   4.717   5.340   7.277  0.0248 -0.0108  0.4606
 3585WAT      O26753   0.578   4.726   7.508 -0.0062 -0.4218  0.4722
 3585WAT     H126754   0.522   4.778   7.565  0.3754 -1.3695  1.7719
 3585WAT     H226755   0.652   4.701   7.564  0.2831 -1.5511 -0.3766
 3586WAT      O26756   6.184   1.609   7.792 -0.1885  0.3256  0.2988
 3586WAT     H126757   6.093   1.605   7.823 -0.6910 -0.2741 -1.1594
 3586WAT     H226758   6.233   1.555   7.854 -0.6016  1.4882  1.7136
 3587WAT      O26759   1.796   4.664   1.068 -0.5379 -0.2631 -0.0642
 3587WAT     H126760   1.818   4.734   1.007  0.3705  0.6366  1.2284
 3587WAT     H226761   1.831   4.694   1.152  0.3267 -2.4860  0.4381
 3588WAT      O26762   4.643   1.181   1.450 -0.0584  0.5643 -0.1312
 3588WAT     H126763   4.552   1.166   1.478 -0.2581 -1.5724 -1.7494
 3588WAT     H226764   4.635   1.242   1.377 -0.2843 -0.1975 -0.7543
 3589WAT      O26765   0.022   5.337   6.312  0.1836 -0.0774 -0.2635
 3589WAT     H126766  -0.010   5.399   6.247  0.2032 -0.2796 -0.4689
 3589WAT     H226767   0.017   5.384   6.395  1.8260  0.8101 -0.6239
 3590WAT      O26768   1.408   1.994   1.301  0.2993 -0.1735  0.5387
 3590WAT     H126769   1.399   1.975   1.208  2.3677  1.8591 -0.1753
 3590WAT     H226770   1.453   1.917   1.337  1.4305 -0.0822 -0.6063
 3591WAT      O26771   0.546   5.277   7.375 -0.2392 -0.0239  0.1822
 3591WAT     H126772   0.490   5.261   7.298  1.8032 -1.4524 -1.1077
 3591WAT     H226773   0.541   5.196   7.425 -0.8858  0.5940  1.1467
 3592WAT      O26774   3.060   3.859   1.512  0.2098 -0.1086  0.0499
 3592WAT     H126775   3.036   3.945   1.547  0.1440  0.3317 -1.0348
 3592WAT     H226776   3.003   3.797   1.558  0.0675  0.4586  0.6415
 3593WAT      O26777   6.099   1.064   6.462 -0.2155 -0.2142 -0.4915
 3593WAT     H126778   6.139   1.145   6.493  2.2092 -1.3661 -0.3167
 3593WAT     H226779   6.121   1.059   6.369 -0.6533 -0.5035 -0.5857
 3594WAT      O26780   0.715   2.380   6.699 -0.5750  0.1891 -0.5196
 3594WAT     H126781   0.701   2.474   6.682 -1.3331  0.0887 -0.4923
 3594WAT     H226782   0.755   2.378   6.786 -1.2314  0.4590 -0.2044
 3595WAT      O26783   1.161   2.087   1.433 -0.3415 -0.1068 -0.1836
 3595WAT     H126784   1.155   2.181   1.419 -0.0259  0.0727  0.8233
 3595WAT     H226785   1.243   2.062   1.391 -1.2689 -0.2469 -1.9832
 3596WAT      O26786   3.732   3.714   5.121  0.7033 -0.2660  0.1008
 3596WAT     H126787   3.740   3.787   5.182  0.6361 -0.7829  0.7391
 3596WAT     H226788   3.819   3.705   5.083  0.0673  1.9625 -2.1432
 3597WAT      O26789   4.140   4.613   6.277  0.1793  0.1127 -0.0308
 3597WAT     H126790   4.161   4.658   6.195  1.2897 -0.4519 -0.0671
 3597WAT     H226791   4.225   4.588   6.314 -0.3814 -1.6006  0.1838
 3598WAT      O26792   6.045   2.167   0.532 -0.2283 -0.4253  0.7458
 3598WAT     H126793   6.032   2.086   0.483  1.0867  0.2755 -0.8976
 3598WAT     H226794   6.078   2.139   0.617 -0.5105 -1.6305  0.4753
 3599WAT      O26795   4.441   4.065   6.276 -0.2775 -0.1843  0.3606
 3599WAT     H126796   4.505   4.105   6.217  0.6295 -0.0526  1.4094
 3599WAT     H226797   4.436   3.974   6.248 -1.1265  0.2313 -0.9812
 3600WAT      O26798   3.209   2.789   6.793  0.6181 -0.1122 -0.2349
 3600WAT     H126799   3.177   2.879   6.792  0.5322 -0.0824  1.5384
 3600WAT     H226800   3.196   2.760   6.884 -0.3274 -2.2633 -0.9878
 3601WAT      O26801   2.523   0.012   6.425  0.1249  0.2287 -0.2525
 3601WAT     H126802   2.566  -0.032   6.499  1.3605  3.1828  0.9219
 3601WAT     H226803   2.447  -0.043   6.405  1.6782 -2.5266  0.8735
 3602WAT      O26804   2.300   2.971   6.548  0.1666  0.5451  0.0704
 3602WAT     H126805   2.378   2.924   6.518 -1.1713 -1.3137 -0.7070
 3602WAT     H226806   2.236   2.902   6.566 -1.2504  1.9995  0.8837
 3603WAT      O26807   1.155   3.840   7.331 -0.2068 -0.0920  0.1005
 3603WAT     H126808   1.178   3.866   7.420 -2.0993  1.5142  0.1973
 3603WAT     H226809   1.215   3.890   7.275 -1.0449  1.3275  0.4206
 3604WAT      O26810   2.310   5.719   1.281  1.0617  0.3505 -0.4328
 3604WAT     H126811   2.252   5.705   1.206 -0.8603  0.9853  0.8697
 3604WAT     H226812   2.321   5.814   1.285  0.7785  0.3604  0.3211
 3605WAT      O26813   0.552   5.340   5.880 -0.1600  0.1734  0.5115
 3605WAT     H126814   0.647   5.355   5.884  0.5340 -2.8355 -1.4616
 3605WAT     H226815   0.525   5.380   5.798 -0.7596  1.4488  1.2981
 3606WAT      O26816   4.263   5.021   7.912  0.4237 -0.2429 -0.0011
 3606WAT     H126817   4.184   4.967   7.911  0.4686 -0.3035 -0.8314
 3606WAT     H226818   4.258   5.068   7.995  0.8380 -2.1782  1.1720
 3607WAT      O26819   0.847   5.288   0.702  0.2319 -0.0149  0.5514
 3607WAT     H126820   0.803   5.256   0.781 -1.0858 -1.2358 -0.6197
 3607WAT     H226821   0.806   5.239   0.631  2.1737  0.2424 -0.8008
 3608WAT      O26822   0.083   5.735   7.766  0.3362  0.6143  0.1882
 3608WAT     H126823   0.142   5.753   7.693 -0.1837 -0.5195 -0.5419
 3608WAT     H226824   0.083   5.816   7.818 -0.3156  1.9535 -1.7890
 3609WAT      O26825   5.093   3.252   1.798 -0.0475 -0.2071  0.0788
 3609WAT     H126826   5.132   3.307   1.731 -0.6628  0.7839  0.5104
 3609WAT     H226827   5.069   3.313   1.868 -2.3258 -0.7441 -0.1494
 3610WAT      O26828   3.410   0.863   6.503 -0.4295 -0.5892 -0.3933
 3610WAT     H126829   3.441   0.779   6.470  2.2280  0.1716 -0.0893
 3610WAT     H226830   3.393   0.848   6.595  0.6242 -0.7194 -0.1967
 3611WAT      O26831   3.004   1.917   6.487  0.1736 -0.2498  0.3844
 3611WAT     H126832   2.939   1.847   6.479 -0.3345  0.3162 -0.7595
 3611WAT     H226833   3.050   1.915   6.403  0.3174  0.6178  0.4374
 3612WAT      O26834   1.686   2.807   2.136 -0.2296  0.1668  0.0755
 3612WAT     H126835   1.743   2.736   2.166 -0.3838 -0.8544 -1.8809
 3612WAT     H226836   1.747   2.871   2.098 -0.2227  0.1943  0.1322
 3613WAT      O26837   1.317   3.869   7.068  0.1225 -0.1410  0.1938
 3613WAT     H126838   1.326   3.904   7.157  1.4421 -0.3910  0.1756
 3613WAT     H226839   1.337   3.943   7.010 -0.0835 -0.1482  0.1115
 3614WAT      O26840   0.763   2.746   1.046  0.5898 -0.5384 -0.5053
 3614WAT     H126841   0.692   2.789   1.094  1.8982 -0.3681  1.3948
 3614WAT     H226842   0.749   2.771   0.955 -1.1049  0.4599 -0.0105
 3615WAT      O26843   2.430   5.039   1.914 -0.8651 -0.2322  0.6461
 3615WAT     H126844   2.385   5.023   1.997  1.1285 -1.8497  1.4911
 3615WAT     H226845   2.509   4.985   1.917  0.0264  0.7470 -1.7131
 3616WAT      O26846   4.373   3.260   7.655 -0.2233  0.2053  0.2921
 3616WAT     H126847   4.460   3.261   7.614 -0.7333 -0.1430 -0.8154
 3616WAT     H226848   4.348   3.168   7.656  0.0034  0.1318  1.9211
 3617WAT      O26849   4.137   4.102   1.147 -0.4038  0.2871  0.4368
 3617WAT     H126850   4.221   4.125   1.107 -0.4946  0.4790  0.3585
 3617WAT     H226851   4.113   4.019   1.104 -1.6192  1.6214 -1.6179
 3618WAT      O26852   2.988   3.536   6.534 -0.1215 -0.6655 -0.3253
 3618WAT     H126853   3.012   3.602   6.599  0.4592 -0.6492 -0.5519
 3618WAT     H226854   2.894   3.523   6.547 -0.4968  1.0238 -1.0035
 3619WAT      O26855   0.297   0.807   1.225  0.0333 -0.0333 -0.7231
 3619WAT     H126856   0.210   0.768   1.235  0.1008  0.0211  0.1487
 3619WAT     H226857   0.304   0.868   1.298  0.9033 -0.2112 -0.6484
 3620WAT      O26858   0.718   4.932   0.045 -0.1616  0.1803  0.5396
 3620WAT     H126859   0.652   4.886   0.096 -0.5893 -0.8435 -0.8760
 3620WAT     H226860   0.767   4.863   0.000  0.1894  1.0398 -0.4489
 3621WAT      O26861   4.505   5.004   6.590  0.0786  0.7857  0.5954
 3621WAT     H126862   4.567   4.951   6.640 -0.9344 -0.5696  0.4751
 3621WAT     H226863   4.425   4.951   6.588  0.0322  0.8206 -2.3580
 3622WAT      O26864   0.517   4.213   7.083  0.1726  0.0653 -0.3482
 3622WAT     H126865   0.425   4.229   7.064  0.6976  1.6704 -1.7540
 3622WAT     H226866   0.547   4.157   7.011  1.1002  2.5082 -1.9843
 3623WAT      O26867   0.218   2.522   1.109  0.4916  0.2999 -0.1528
 3623WAT     H126868   0.260   2.443   1.075  1.7431  0.9346 -0.1196
 3623WAT     H226869   0.188   2.569   1.031  0.3732  0.1344 -0.2078
 3624WAT      O26870   6.206   2.579   7.512 -0.0607  0.0786  0.1966
 3624WAT     H126871   6.155   2.516   7.461 -0.8724  1.2657 -0.5096
 3624WAT     H226872   6.144   2.650   7.532  0.5557  0.1998  1.8332
 3625WAT      O26873   3.870   1.983   1.037 -0.6369 -0.5050  0.5559
 3625WAT     H126874   3.900   1.893   1.047  0.2051 -0.1253  1.5960
 3625WAT     H226875   3.866   2.018   1.126  1.8969  1.3758  0.0412
 3626WAT      O26876   5.920   2.647   5.874 -0.3477 -0.4143  0.6169
 3626WAT     H126877   5.843   2.635   5.930 -1.0789 -1.4301 -0.5657
 3626WAT     H226878   5.887   2.639   5.785  0.8533  0.8641  0.0230
 3627WAT      O26879   3.352   3.837   0.575  0.2416 -0.5698 -0.2891
 3627WAT     H126880   3.420   3.777   0.607 -0.6572 -1.6204 -0.2747
 3627WAT     H226881   3.309   3.870   0.654 -0.0019 -0.8087 -0.3172
 3628WAT      O26882   3.462   6.149   1.350  0.0385  0.5023 -0.0480
 3628WAT     H126883   3.556   6.150   1.332 -0.0242  0.8540 -0.3873
 3628WAT     H226884   3.422   6.174   1.267 -0.3270  0.9386  0.2551
 3629WAT      O26885   2.351   3.180   0.693  0.2517  0.1744 -0.4872
 3629WAT     H126886   2.279   3.125   0.663 -0.1456 -0.6368  1.7464
 3629WAT     H226887   2.311   3.265   0.711 -0.4620 -0.5497  1.7057
 3630WAT      O26888   5.624   0.447   1.249 -0.2111  0.1037  0.1706
 3630WAT     H126889   5.532   0.437   1.226  0.1791 -0.8796 -1.0231
 3630WAT     H226890   5.623   0.465   1.343 -1.6035 -0.0766  0.2100
 3631WAT      O26891   6.118   0.328   6.951  0.0414  0.0382  0.2845
 3631WAT     H126892   6.182   0.257   6.952 -0.3481 -0.3290 -0.0509
 3631WAT     H226893   6.051   0.299   6.889  2.0390  2.6487 -3.4526
 3632WAT      O26894   2.067   5.584   1.332 -0.3355 -0.5342 -0.3257
 3632WAT     H126895   2.128   5.641   1.378 -1.0417  0.5308 -0.6665
 3632WAT     H226896   2.080   5.604   1.239 -0.0288 -1.5285 -0.5184
 3633WAT      O26897   0.735   0.508   0.282  0.3805  0.1438 -0.3078
 3633WAT     H126898   0.640   0.518   0.286  0.1606 -1.0221 -1.7157
 3633WAT     H226899   0.760   0.553   0.202  0.9041 -0.2685 -0.3812
 3634WAT      O26900   4.235   4.227   7.314  0.1440  0.5528 -0.2217
 3634WAT     H126901   4.160   4.183   7.355  0.1817  0.2983 -0.4227
 3634WAT     H226902   4.278   4.273   7.385 -0.1507  0.6195 -0.0876
 3635WAT      O26903   4.507   2.984   0.907 -0.1220  0.2440  0.0927
 3635WAT     H126904   4.447   2.985   0.832  0.0406  0.2948 -0.0385
 3635WAT     H226905   4.550   2.899   0.903  0.7862  0.7184 -0.5943
 3636WAT      O26906   2.236   5.027   2.112 -0.4296 -0.2228  0.5579
 3636WAT     H126907   2.288   5.016   2.192 -0.0485  2.0434  0.6975
 3636WAT     H226908   2.200   5.116   2.119 -1.7703 -0.5975 -1.0159
 3637WAT      O26909   1.789   6.223   7.705  0.5138  0.2770  0.4406
 3637WAT     H126910   1.811   6.156   7.640  0.9045  1.7726 -1.0271
 3637WAT     H226911   1.839   6.300   7.678 -1.4764  1.7978  0.8946
 3638WAT      O26912   3.326   0.328   0.469  0.2597 -0.3536 -0.3498
 3638WAT     H126913   3.421   0.339   0.466  0.2217 -0.2493 -1.2566
 3638WAT     H226914   3.291   0.414   0.449 -0.0382 -0.3282  0.2372
 3639WAT      O26915   5.600   2.966   7.492  0.1134 -0.0263 -0.2329
 3639WAT     H126916   5.592   3.032   7.562 -0.6255  1.4941 -1.6819
 3639WAT     H226917   5.684   2.987   7.450  1.1238 -1.6602  0.8391
 3640WAT      O26918   2.966   4.256   7.844 -0.2580  0.2822  0.1732
 3640WAT     H126919   2.944   4.192   7.911 -3.1143  0.9349 -0.0329
 3640WAT     H226920   2.984   4.337   7.893 -0.5843  0.3164  0.2367
 3641WAT      O26921   3.544   1.363   1.992  0.1041 -0.1789 -0.7236
 3641WAT     H126922   3.514   1.363   2.082  0.6951 -0.9675 -0.5180
 3641WAT     H226923   3.496   1.435   1.950  0.6063  0.8802  0.4646
 3642WAT      O26924   3.348   4.715   1.273 -0.0028 -0.3492  0.3355
 3642WAT     H126925   3.322   4.658   1.345  2.2290 -0.7494  0.8942
 3642WAT     H226926   3.442   4.701   1.263  0.2667  1.7868 -0.8092
 3643WAT      O26927   1.609   2.066   7.192  0.1728  0.0458 -0.3406
 3643WAT     H126928   1.642   2.012   7.120  1.2597 -0.2054  0.3298
 3643WAT     H226929   1.608   2.007   7.268 -1.4807  0.1496 -0.2324
 3644WAT      O26930   1.241   4.713   5.733 -0.1249  0.4173  0.1310
 3644WAT     H126931   1.259   4.802   5.764 -1.1297  0.2013  1.4205
 3644WAT     H226932   1.317   4.690   5.680  2.2209  0.4635  3.2269
 3645WAT      O26933   3.441   4.101   1.444  0.9700  0.6729  0.0277
 3645WAT     H126934   3.508   4.120   1.510  0.7995 -0.6710  0.6178
 3645WAT     H226935   3.371   4.162   1.464 -0.4623 -1.7120  3.2204
 3646WAT      O26936   3.076   1.380   7.676 -0.2711  0.0758 -0.2596
 3646WAT     H126937   3.133   1.337   7.612  0.2808 -1.5896  1.2439
 3646WAT     H226938   2.993   1.333   7.669  0.1492 -0.9335  0.9767
 3647WAT      O26939   3.611   2.800   1.003  0.4754 -0.1989  0.3895
 3647WAT     H126940   3.635   2.892   1.015  2.8274 -0.4358 -1.7772
 3647WAT     H226941   3.668   2.752   1.062  1.2665 -0.4113 -0.5290
 3648WAT      O26942   3.934   2.013   7.217  0.3750 -0.2640  0.3171
 3648WAT     H126943   3.893   2.071   7.281 -0.3220 -1.6976  1.2025
 3648WAT     H226944   4.018   2.055   7.198 -0.2068  1.1555  0.7296
 3649WAT      O26945   0.188   1.470   7.934 -0.0401  0.6242  0.2466
 3649WAT     H126946   0.245   1.542   7.962  1.5598 -0.9376  1.2180
 3649WAT     H226947   0.151   1.436   8.015 -1.7872  1.0855 -0.3086
 3650WAT      O26948   3.757   4.996   1.530  0.0347 -0.3166  0.6487
 3650WAT     H126949   3.675   5.037   1.503  0.1117 -0.1158  0.7174
 3650WAT     H226950   3.778   5.037   1.614  1.7472  1.8430 -0.7324
 3651WAT      O26951   5.551   1.506   7.003  0.4208 -0.3412 -0.3369
 3651WAT     H126952   5.614   1.486   7.071 -1.1652 -1.2138  0.9370
 3651WAT     H226953   5.515   1.421   6.976 -1.3506  0.2063  0.1422
 3652WAT      O26954   4.343   5.694   7.939 -0.8840 -0.3512  0.5816
 3652WAT     H126955   4.305   5.774   7.902 -0.9217 -0.3854  0.5465
 3652WAT     H226956   4.400   5.660   7.870 -0.7194 -0.2503  0.6686
 3653WAT      O26957   5.626   5.788   0.473 -0.4946  0.1570  0.0895
 3653WAT     H126958   5.547   5.798   0.526  0.0159  3.0624  0.4366
 3653WAT     H226959   5.697   5.781   0.537 -0.2667 -0.4368 -0.2232
 3654WAT      O26960   3.529   2.340   7.911 -0.1249 -0.7643 -0.2748
 3654WAT     H126961   3.593   2.270   7.901 -0.2777 -0.8794 -0.4592
 3654WAT     H226962   3.467   2.308   7.976  0.4509 -0.3219  0.5101
 3655WAT      O26963   0.439   4.207   0.852  0.2161 -0.0119  0.2615
 3655WAT     H126964   0.366   4.173   0.903  0.3579  2.0554  2.0091
 3655WAT     H226965   0.506   4.229   0.917  1.7565 -0.2930 -1.1427
 3656WAT      O26966   6.150   1.271   1.267  0.1573 -0.1767  0.5908
 3656WAT     H126967   6.060   1.241   1.257  1.0661 -3.3088  0.7591
 3656WAT     H226968   6.201   1.191   1.277  2.7979  1.5473  2.1561
 3657WAT      O26969   1.322   1.039   6.431  0.1341  0.4842 -0.0140
 3657WAT     H126970   1.373   1.118   6.413 -0.7548  0.7471 -1.5245
 3657WAT     H226971   1.304   1.002   6.345 -0.1934 -0.9133  0.6266
 3658WAT      O26972   3.844   1.534   1.123  0.0771  0.0995 -0.4124
 3658WAT     H126973   3.891   1.566   1.046  2.7958 -0.5403  0.8643
 3658WAT     H226974   3.871   1.592   1.194 -2.7461  0.9819  0.0614
 3659WAT      O26975   5.296   1.600   7.931 -0.4292 -0.1316  0.1456
 3659WAT     H126976   5.228   1.550   7.976  0.0429 -0.0784  0.9563
 3659WAT     H226977   5.280   1.585   7.838 -0.9923 -0.8519  0.3469
 3660WAT      O26978   2.575   3.325   6.390 -0.1239 -0.3273 -0.3877
 3660WAT     H126979   2.641   3.347   6.324  0.3515 -2.6789 -0.7558
 3660WAT     H226980   2.496   3.305   6.340 -0.2550 -0.4503 -0.1353
 3661WAT      O26981   1.547   0.414   0.372 -0.8142  0.4722 -0.1644
 3661WAT     H126982   1.466   0.435   0.325 -0.5956 -0.4987 -1.0177
 3661WAT     H226983   1.541   0.464   0.453 -2.8335 -0.4756  0.3578
 3662WAT      O26984   4.314   6.019   6.511  0.0679 -0.0492 -0.3864
 3662WAT     H126985   4.342   6.035   6.421 -0.7939 -0.7756 -0.8019
 3662WAT     H226986   4.225   5.984   6.503  0.0642 -0.3523  0.7321
 3663WAT      O26987   1.390   4.548   0.498  0.1756 -0.3285 -0.1883
 3663WAT     H126988   1.473   4.595   0.488 -1.0480  2.5736  1.7995
 3663WAT     H226989   1.338   4.576   0.423  0.0899 -0.0052 -0.0093
 3664WAT      O26990   4.479   4.870   1.641  0.4281  0.5662 -0.4351
 3664WAT     H126991   4.384   4.868   1.632  0.1379  1.9204  1.7003
 3664WAT     H226992   4.505   4.778   1.642 -0.7763  0.1888 -1.5916
 3665WAT      O26993   4.725   2.690   7.116 -0.3005 -0.1863  0.0158
 3665WAT     H126994   4.802   2.697   7.173 -1.1877  2.0325  1.0929
 3665WAT     H226995   4.745   2.619   7.055  1.6103 -1.1987  1.7222
 3666WAT      O26996   3.055   5.457   0.101 -0.6806  0.1479  0.0158
 3666WAT     H126997   3.061   5.383   0.161  0.4178  0.2506  0.0557
 3666WAT     H226998   3.101   5.427   0.022  0.0409  0.8774  0.1438
 3667WAT      O26999   2.141   3.861   0.441  0.3877  0.8542 -0.0670
 3667WAT     H127000   2.068   3.847   0.381  1.0651 -1.4389 -0.4781
 3667WAT     H227001   2.170   3.951   0.424  0.3279  0.4090 -2.9704
 3668WAT      O27002   4.577   5.931   1.167 -0.1885  0.3399  0.0461
 3668WAT     H127003   4.622   5.867   1.222  0.4805 -0.7025 -1.6322
 3668WAT     H227004   4.535   5.991   1.229 -0.7815 -1.6625  1.6766
 3669WAT      O27005   2.050   2.994   1.063  0.2199  0.4527  0.0485
 3669WAT     H127006   2.127   3.029   1.106  0.4902  0.5841 -0.5326
 3669WAT     H227007   2.013   3.069   1.015 -0.8758  0.6660  1.1713
 3670WAT      O27008   3.177   5.820   7.280  0.1292  0.0048  0.1248
 3670WAT     H127009   3.097   5.842   7.232  0.5945  0.7856 -0.3243
 3670WAT     H227010   3.242   5.881   7.246  0.6034  0.2372  1.4032
 3671WAT      O27011   1.546   2.964   0.311 -0.6853  0.2821  0.2729
 3671WAT     H127012   1.605   3.035   0.288  0.8753 -0.3645  2.0463
 3671WAT     H227013   1.575   2.890   0.257  1.1158 -0.4202  2.0650
 3672WAT      O27014   3.952   1.992   2.457 -0.2849  0.0886  0.3306
 3672WAT     H127015   3.898   2.064   2.424 -0.1188  0.1588  0.2141
 3672WAT     H227016   3.894   1.916   2.454 -0.7111  0.3656  1.1842
 3673WAT      O27017   5.558   3.590   7.566  0.1104 -0.3770 -0.2637
 3673WAT     H127018   5.508   3.660   7.525  2.0857  0.2465 -1.8058
 3673WAT     H227019   5.618   3.635   7.626  0.6805 -0.8198 -0.4879
 3674WAT      O27020   0.950   1.368   0.474  0.1392 -0.0689  0.0245
 3674WAT     H127021   0.928   1.358   0.382  2.2454  0.9107 -0.6401
 3674WAT     H227022   0.885   1.430   0.507  0.6226  1.2598 -1.3724
 3675WAT      O27023   4.124   5.036   6.819 -0.4185 -0.0919  0.6742
 3675WAT     H127024   4.059   5.106   6.819  0.2748  0.6165 -1.1288
 3675WAT     H227025   4.202   5.075   6.858 -0.0996  0.0961 -0.1293
 3676WAT      O27026   4.418   5.481   7.130 -0.5368 -0.6649  0.5039
 3676WAT     H127027   4.346   5.430   7.167  0.4627 -1.2905  1.6725
 3676WAT     H227028   4.495   5.427   7.145  0.3714  0.5928  0.5087
 3677WAT      O27029   5.046   1.163   6.726  0.0377  0.4849  0.0046
 3677WAT     H127030   5.111   1.227   6.696  1.0656 -0.6591 -0.2852
 3677WAT     H227031   5.095   1.103   6.781 -0.3021 -1.5308 -1.7654
 3678WAT      O27032   5.857   3.368   7.786 -0.3616  0.4961  0.0334
 3678WAT     H127033   5.830   3.384   7.696 -1.8870 -2.1448 -0.0832
 3678WAT     H227034   5.811   3.434   7.837  0.2585  1.8154 -1.0466
 3679WAT      O27035   4.332   5.924   7.507  0.2939 -0.5295 -0.2597
 3679WAT     H127036   4.421   5.892   7.492  0.5403  0.0019  0.0406
 3679WAT     H227037   4.285   5.903   7.426  1.2414  1.0519 -1.2623
 3680WAT      O27038   1.253   5.651   6.161 -0.4706 -0.0982  0.2072
 3680WAT     H127039   1.303   5.677   6.083  1.4233  1.2261  1.7635
 3680WAT     H227040   1.203   5.729   6.184  1.8607  0.8975  2.3737
 3681WAT      O27041   2.769   3.251   6.863  0.3087 -0.1044 -0.0925
 3681WAT     H127042   2.697   3.302   6.899  0.8741  1.1764 -0.7142
 3681WAT     H227043   2.791   3.295   6.781  1.8118 -0.4518  0.0954
 3682WAT      O27044   0.943   5.196   6.425 -0.0989  0.9616 -0.2024
 3682WAT     H127045   1.016   5.133   6.425  0.3999  1.5244  0.2080
 3682WAT     H227046   0.968   5.262   6.361 -0.1150  1.3000  0.1337
 3683WAT      O27047   5.952   1.286   0.703  0.0595 -0.4108  0.3815
 3683WAT     H127048   6.022   1.314   0.643 -0.2085 -0.4433  0.0522
 3683WAT     H227049   5.954   1.191   0.699 -1.4074 -0.4427 -1.3075
 3684WAT      O27050   1.490   4.557   1.056  0.0181  0.1630  0.4954
 3684WAT     H127051   1.498   4.465   1.082  2.4162  0.0010 -0.5713
 3684WAT     H227052   1.580   4.586   1.041 -0.8453  1.6337 -2.7537
 3685WAT      O27053   3.967   4.952   7.846 -0.1165 -0.0718 -0.1926
 3685WAT     H127054   3.905   5.021   7.870 -1.0812 -1.1028  0.3636
 3685WAT     H227055   3.927   4.872   7.880 -0.2291 -1.2710 -2.9668
 3686WAT      O27056   3.643   0.662   0.875 -0.3484  0.5229  0.1132
 3686WAT     H127057   3.690   0.613   0.942  0.3083 -2.7382 -2.4620
 3686WAT     H227058   3.711   0.697   0.818 -0.8748 -0.5372 -1.2378
 3687WAT      O27059   2.327   5.667   0.675 -0.1260 -0.2454  0.2845
 3687WAT     H127060   2.338   5.572   0.667 -0.5902 -0.2584 -0.2917
 3687WAT     H227061   2.254   5.677   0.736 -1.6093 -0.3333 -1.3868
 3688WAT      O27062   3.254   1.841   0.313 -0.4247  0.3740  0.7189
 3688WAT     H127063   3.219   1.929   0.327 -1.5388 -0.1169  1.1560
 3688WAT     H227064   3.347   1.849   0.335 -0.7159  1.2120  1.7721
 3689WAT      O27065   4.857   1.440   0.648 -0.3360 -0.0138 -0.1880
 3689WAT     H127066   4.944   1.415   0.617  0.5896  0.2260  2.0259
 3689WAT     H227067   4.799   1.374   0.612  0.7823 -0.3187 -1.5208
 3690WAT      O27068   0.195   5.232   1.257  0.2956 -0.2070 -0.0943
 3690WAT     H127069   0.137   5.299   1.222  0.7940  0.7449  0.8388
 3690WAT     H227070   0.282   5.273   1.258  0.6221 -0.8879  0.4043
 3691WAT      O27071   4.204   5.121   0.232 -0.0061 -0.5068  0.0440
 3691WAT     H127072   4.201   5.114   0.328 -0.3269  0.0221  0.0787
 3691WAT     H227073   4.123   5.167   0.209 -0.8793 -2.2601 -0.6441
 3692WAT      O27074   6.002   2.306   0.008 -0.3421 -0.1356  0.1873
 3692WAT     H127075   6.001   2.400  -0.008  0.8870  0.0370  1.0074
 3692WAT     H227076   6.066   2.272  -0.055  0.4381 -0.1899  0.9977
 3693WAT      O27077   0.087   2.321   7.164  0.2751 -0.0137  0.2918
 3693WAT     H127078   0.139   2.247   7.132 -0.9927 -1.1731  0.8018
 3693WAT     H227079   0.113   2.330   7.255  1.2560  0.9409 -0.0621
 3694WAT      O27080   3.213   0.226   0.937  0.3256  0.0783  0.6125
 3694WAT     H127081   3.287   0.210   0.878 -0.1636  1.2684 -0.3752
 3694WAT     H227082   3.142   0.172   0.902  0.3459 -0.0532  0.7719
 3695WAT      O27083   5.348   4.601   1.365  0.2645  0.1484  0.0639
 3695WAT     H127084   5.402   4.679   1.357  0.4878 -0.0905 -0.9069
 3695WAT     H227085   5.341   4.586   1.460  3.5693 -0.9442  0.2699
 3696WAT      O27086   3.310   1.697   1.382 -0.7562  0.2684 -0.0353
 3696WAT     H127087   3.404   1.682   1.378 -0.9009 -0.5023 -0.7752
 3696WAT     H227088   3.288   1.687   1.475 -0.2935 -0.7394 -0.0230
 3697WAT      O27089   1.416   2.616   1.082  0.4485 -0.1093 -0.6882
 3697WAT     H127090   1.486   2.563   1.045 -0.0518 -1.5236  0.2855
 3697WAT     H227091   1.458   2.698   1.106  1.9430 -1.1288  0.4002
 3698WAT      O27092   0.362   1.547   7.290  0.2500  0.4970  0.6570
 3698WAT     H127093   0.345   1.515   7.202  1.1207  0.5510  0.4573
 3698WAT     H227094   0.294   1.611   7.307 -0.9348 -0.7171  0.6697
 3699WAT      O27095   4.033   2.358   7.068 -0.0773 -0.4745  0.1826
 3699WAT     H127096   4.064   2.402   7.148 -0.4399 -0.0480  0.0937
 3699WAT     H227097   4.095   2.287   7.054  1.3500  0.8408 -0.4348
 3700WAT      O27098   2.313   1.689   1.311  0.7729 -0.1638  0.7188
 3700WAT     H127099   2.352   1.607   1.342 -1.3445 -1.4037  0.3064
 3700WAT     H227100   2.322   1.685   1.215  0.9899  0.2758  0.7171
 3701WAT      O27101   4.787   3.614   6.739 -0.1879 -0.1351  0.1668
 3701WAT     H127102   4.811   3.705   6.757 -1.2518 -0.1266  1.7688
 3701WAT     H227103   4.713   3.621   6.678 -0.3974  0.1037  0.4401
 3702WAT      O27104   4.898   5.397   7.449  0.6523 -0.2911  0.4569
 3702WAT     H127105   4.925   5.463   7.385 -0.2825 -0.8289 -0.5165
 3702WAT     H227106   4.928   5.314   7.412  0.0530 -0.6159  0.6897
 3703WAT      O27107   4.223   3.797   1.297  0.5466 -0.1761 -0.0159
 3703WAT     H127108   4.274   3.721   1.267  0.9972 -0.5477  1.5693
 3703WAT     H227109   4.140   3.759   1.326  0.2907  0.1095 -0.3784
 3704WAT      O27110   2.663   5.635   2.324  0.6050 -0.9460  0.6671
 3704WAT     H127111   2.733   5.570   2.333  3.5223  1.9638  0.7115
 3704WAT     H227112   2.640   5.657   2.414  0.8008 -0.7672  0.6751
 3705WAT      O27113   3.131   1.874   0.569  0.1423  0.1385 -0.3912
 3705WAT     H127114   3.207   1.870   0.627  0.2634 -1.1286 -0.6121
 3705WAT     H227115   3.153   1.814   0.498 -2.5991 -3.3582  1.4296
 3706WAT      O27116   2.268   3.197   7.616  0.8306  0.5431  0.5468
 3706WAT     H127117   2.178   3.170   7.596  1.0568  0.5560 -0.5594
 3706WAT     H227118   2.307   3.121   7.658  0.9554 -0.3042 -1.0078
 3707WAT      O27119   2.658   5.050   1.040  0.6025  0.1874  0.0642
 3707WAT     H127120   2.563   5.037   1.036  0.8852 -1.9134 -2.5747
 3707WAT     H227121   2.670   5.144   1.029 -1.1700  0.5548  0.9918
 3708WAT      O27122   0.901   3.807   7.252 -0.5905  0.0878 -0.3716
 3708WAT     H127123   0.869   3.728   7.297 -0.9091  0.1814 -0.4289
 3708WAT     H227124   0.992   3.816   7.281 -0.6992 -0.0269  0.0129
 3709WAT      O27125   3.520   4.665   1.885 -0.2610 -0.3889 -0.1370
 3709WAT     H127126   3.560   4.594   1.834  0.9106  0.1824 -0.0387
 3709WAT     H227127   3.470   4.715   1.821 -1.1389 -1.3088 -0.2002
 3710WAT      O27128   0.429   3.726   1.135  0.9552 -0.2578  0.1728
 3710WAT     H127129   0.420   3.712   1.041  0.4501 -0.3988  0.2388
 3710WAT     H227130   0.372   3.801   1.154  0.0211 -1.0427  0.5690
 3711WAT      O27131   3.463   5.146   6.486 -0.1278 -0.5554 -0.9646
 3711WAT     H127132   3.408   5.096   6.426 -0.7216  0.1658 -1.0354
 3711WAT     H227133   3.508   5.210   6.430  1.0545 -1.3431 -0.9592
 3712WAT      O27134   6.134   0.854   6.926  0.7917  0.2593  0.0787
 3712WAT     H127135   6.104   0.782   6.982 -0.7171 -0.6145 -1.7133
 3712WAT     H227136   6.224   0.830   6.902  0.2903 -1.1424 -0.5546
 3713WAT      O27137   0.685   1.617   7.219 -0.0812 -0.0041  0.2735
 3713WAT     H127138   0.691   1.664   7.303  1.9401 -0.5790  0.5032
 3713WAT     H227139   0.678   1.525   7.244  0.1574 -0.1487 -0.1797
 3714WAT      O27140   1.723   5.074   1.173  0.0201  0.2014  0.4581
 3714WAT     H127141   1.779   5.006   1.135 -0.4813 -0.4655  0.8881
 3714WAT     H227142   1.759   5.087   1.261  0.2684  0.6804  0.2899
 3715WAT      O27143   4.756   4.102   6.503  0.7522  0.4125  0.2911
 3715WAT     H127144   4.829   4.097   6.564  1.3876  0.6529 -0.4280
 3715WAT     H227145   4.750   4.015   6.464 -0.2650 -0.0255  1.3607
 3716WAT      O27146   0.640   2.964   5.320 -0.2162 -0.3919 -0.1829
 3716WAT     H127147   0.699   2.891   5.336  0.0387  0.3140  2.7087
 3716WAT     H227148   0.683   3.039   5.359 -2.5192  0.3459  1.1427
 3717WAT      O27149   2.387   4.713   6.849 -0.6284 -0.1110 -0.4657
 3717WAT     H127150   2.416   4.622   6.852 -3.0582 -0.9815  2.4308
 3717WAT     H227151   2.292   4.708   6.858 -0.9094  2.7104 -0.8974
 3718WAT      O27152   3.431   0.722   1.006 -0.0950 -0.0378 -0.1568
 3718WAT     H127153   3.509   0.700   0.955  1.3325  2.5865  0.7100
 3718WAT     H227154   3.458   0.712   1.097 -0.8705  0.6125  0.1591
 3719WAT      O27155   4.770   3.224   6.340  0.3670 -0.0948  0.0343
 3719WAT     H127156   4.699   3.173   6.381 -0.0702 -0.5010 -1.1862
 3719WAT     H227157   4.735   3.312   6.333  0.0244 -0.2691 -0.4612
 3720WAT      O27158   2.250   5.375   7.609 -0.8239 -0.3984 -0.6743
 3720WAT     H127159   2.230   5.311   7.541  0.8060 -0.7804 -0.8471
 3720WAT     H227160   2.322   5.427   7.572  0.7547 -1.2198  1.0701
 3721WAT      O27161   1.286   0.843   7.430 -0.2515  0.1083  0.1204
 3721WAT     H127162   1.339   0.899   7.487  1.4642 -0.0090 -1.2748
 3721WAT     H227163   1.273   0.763   7.481 -1.2711  1.0790  1.4627
 3722WAT      O27164   3.437   5.370   7.054 -0.1567 -0.1814 -0.4790
 3722WAT     H127165   3.443   5.458   7.091 -0.8001 -0.2577 -0.1755
 3722WAT     H227166   3.522   5.356   7.012  0.5642 -0.0438  0.8514
 3723WAT      O27167   0.775   5.962   1.925  0.0070 -0.1793 -0.9284
 3723WAT     H127168   0.712   5.992   1.859  0.5248  1.3860 -0.7423
 3723WAT     H227169   0.732   5.980   2.009 -0.5225 -1.8884 -0.7953
 3724WAT      O27170   4.618   5.544   0.867  0.1465  0.4856  0.0795
 3724WAT     H127171   4.613   5.595   0.947  1.4074 -0.5587  0.8575
 3724WAT     H227172   4.700   5.495   0.874 -0.7793 -1.3285 -0.8116
 3725WAT      O27173   0.690   0.860   0.296  0.1036  0.1929  0.1149
 3725WAT     H127174   0.697   0.782   0.241  2.3360  0.9421 -0.8031
 3725WAT     H227175   0.622   0.839   0.360 -0.8583 -1.6535 -1.4175
 3726WAT      O27176   3.371   0.111   7.725  0.3103  0.1043  0.2312
 3726WAT     H127177   3.403   0.080   7.810  0.2407 -1.0913 -0.1661
 3726WAT     H227178   3.429   0.070   7.661 -0.2727  0.1777 -0.3510
 3727WAT      O27179   4.146   2.834   7.412 -0.1383  0.1347  0.2854
 3727WAT     H127180   4.124   2.879   7.330 -0.3922 -0.7736 -0.1631
 3727WAT     H227181   4.117   2.894   7.481 -3.0511 -0.4798 -0.2743
 3728WAT      O27182   3.895   2.625   7.029 -0.3676 -0.1481  0.1169
 3728WAT     H127183   3.908   2.537   6.992  0.9396 -0.5849  1.5389
 3728WAT     H227184   3.952   2.628   7.105  0.1625  2.2125 -0.2958
 3729WAT      O27185   0.033   4.240   7.670 -0.3492 -0.1422  0.4482
 3729WAT     H127186  -0.014   4.192   7.602  1.3665  0.0218 -0.9150
 3729WAT     H227187  -0.018   4.320   7.682 -0.3145  0.1471 -1.1523
 3730WAT      O27188   4.499   1.669   0.699  0.0689 -0.3750 -0.0134
 3730WAT     H127189   4.462   1.674   0.611 -0.9592 -0.3309  0.4130
 3730WAT     H227190   4.458   1.592   0.739  0.6560 -0.4958  0.3760
 3731WAT      O27191   5.373   0.857   6.795 -0.1735 -0.1504  0.5299
 3731WAT     H127192   5.366   0.761   6.790  1.3105 -0.3210  1.2064
 3731WAT     H227193   5.339   0.888   6.711 -0.3514 -1.2900  0.1605
 3732WAT      O27194   1.278   6.077   7.610 -0.0699  0.2881  0.1431
 3732WAT     H127195   1.357   6.117   7.572  0.0624  0.0853  0.2044
 3732WAT     H227196   1.218   6.151   7.623  0.4416  0.5813  0.9170
 3733WAT      O27197   5.222   4.625   0.668  0.2330 -0.5466  0.3290
 3733WAT     H127198   5.175   4.696   0.625 -0.6677 -1.9759 -1.1297
 3733WAT     H227199   5.309   4.661   0.685 -1.1405  2.0945  2.8777
 3734WAT      O27200   0.334   5.090   6.364 -0.0489  0.2264 -0.1570
 3734WAT     H127201   0.395   5.107   6.436 -0.6055  1.5233  0.0416
 3734WAT     H227202   0.328   5.174   6.317 -2.3706  0.4606  0.3977
 3735WAT      O27203   5.110   3.398   2.199  0.3285 -0.7526  0.0264
 3735WAT     H127204   5.200   3.431   2.208  0.1183 -0.4557  1.1795
 3735WAT     H227205   5.088   3.414   2.107  0.4669  1.7485  0.3638
 3736WAT      O27206   2.909   0.404   1.187  0.0456  0.0845 -0.7618
 3736WAT     H127207   2.921   0.347   1.262 -1.9671 -0.7409 -1.0244
 3736WAT     H227208   2.983   0.465   1.191 -0.3646  0.5214  2.2631
 3737WAT      O27209   4.045   4.477   7.942 -0.2033 -0.4345 -0.1157
 3737WAT     H127210   3.979   4.506   7.880 -0.7996 -0.8108  0.3291
 3737WAT     H227211   4.082   4.558   7.977 -0.3297 -0.2226 -0.4652
 3738WAT      O27212   1.916   6.041   6.745  0.1726 -0.1256 -0.6953
 3738WAT     H127213   1.826   6.053   6.777  0.4217  0.1584 -0.0980
 3738WAT     H227214   1.922   6.101   6.670 -0.6076 -1.2484 -1.6895
 3739WAT      O27215   1.027   5.669   7.747 -0.0440 -0.3748  0.1861
 3739WAT     H127216   1.087   5.646   7.818 -0.0718  0.4882  0.4899
 3739WAT     H227217   1.080   5.723   7.688 -0.6235  0.7343  0.6617
 3740WAT      O27218   3.191   0.201   7.410  0.8830 -0.3554  0.1780
 3740WAT     H127219   3.134   0.269   7.446 -0.3737 -1.4969  0.4068
 3740WAT     H227220   3.132   0.131   7.384  2.1180 -1.2254 -0.3958
 3741WAT      O27221   3.893   3.305   0.990  0.0831  0.1361 -0.3372
 3741WAT     H127222   3.822   3.292   0.929  0.9744  1.3334 -1.7183
 3741WAT     H227223   3.972   3.290   0.939  0.8501  0.0247  0.8294
 3742WAT      O27224   3.954   2.338   2.442  0.7936 -0.2633  0.5363
 3742WAT     H127225   3.924   2.410   2.386  0.3440 -0.8300  0.0344
 3742WAT     H227226   3.876   2.283   2.454  1.4057 -1.2674 -0.0167
 3743WAT      O27227   0.489   3.003   1.750  0.4239  0.0795  0.4668
 3743WAT     H127228   0.560   3.065   1.733  0.1828  0.2745  0.1559
 3743WAT     H227229   0.444   3.038   1.826  1.9108 -1.1459  1.9758
 3744WAT      O27230   2.267   5.128   7.489  0.3702  0.5925  0.5340
 3744WAT     H127231   2.360   5.124   7.512  1.1475 -1.6476 -2.4595
 3744WAT     H227232   2.266   5.172   7.404 -1.2558  0.1983  0.3318
 3745WAT      O27233   1.709   2.384   5.829  0.2300 -0.3930  0.1492
 3745WAT     H127234   1.784   2.422   5.874 -0.2070 -0.1423  0.6788
 3745WAT     H227235   1.717   2.413   5.739  0.0469  0.7512  0.4840
 3746WAT      O27236   0.644   1.277   6.814  0.1166 -0.5776  0.4056
 3746WAT     H127237   0.650   1.370   6.833 -1.8464 -0.4307  0.5368
 3746WAT     H227238   0.560   1.267   6.768  0.2125 -2.2839  0.5286
 3747WAT      O27239   3.101   5.822   0.443  0.1564 -0.4187  0.2579
 3747WAT     H127240   3.196   5.815   0.441  0.1922 -0.1899  0.7599
 3747WAT     H227241   3.069   5.732   0.437  0.4086 -0.4997  0.1544
 3748WAT      O27242   0.678   0.903   0.640  0.3982 -0.5073 -0.0660
 3748WAT     H127243   0.710   0.857   0.717 -0.6788 -1.2850 -0.0522
 3748WAT     H227244   0.613   0.965   0.674 -0.9962 -1.7217 -0.4286
 3749WAT      O27245   5.625   5.372   1.725 -0.1635 -0.5217 -0.0480
 3749WAT     H127246   5.629   5.324   1.808  1.0464 -1.2667 -0.5070
 3749WAT     H227247   5.710   5.414   1.718  0.1509 -1.3390 -1.4068
 3750WAT      O27248   2.985   4.401   5.322 -0.1518  0.5907 -0.1788
 3750WAT     H127249   2.910   4.459   5.338 -0.3495  0.2583  0.1293
 3750WAT     H227250   3.060   4.460   5.314 -0.4561  0.9324 -0.5592
 3751WAT      O27251   2.084   4.355   1.205 -0.6254 -1.0052  0.1563
 3751WAT     H127252   2.115   4.388   1.289  3.3540 -1.1568 -1.0615
 3751WAT     H227253   2.063   4.433   1.154  0.7035 -0.7178  0.0379
 3752WAT      O27254   2.114   3.460   2.002  0.2988  0.0160 -0.4577
 3752WAT     H127255   2.074   3.536   2.045 -1.0208 -1.1079  0.4420
 3752WAT     H227256   2.044   3.426   1.946  1.2823  0.1658 -1.7891
 3753WAT      O27257   3.440   3.512   7.251 -0.4612 -0.5842  1.2708
 3753WAT     H127258   3.357   3.557   7.234  0.2938 -0.3886 -3.4175
 3753WAT     H227259   3.422   3.421   7.227  0.6668 -0.4918 -0.0110
 3754WAT      O27260   3.597   1.516   0.252  0.3119  0.2153  0.1251
 3754WAT     H127261   3.587   1.611   0.256  0.6556  0.2365  0.5592
 3754WAT     H227262   3.610   1.498   0.159  3.5424  0.9511  0.3225
 3755WAT      O27263   3.370   2.800   0.071  0.1117 -0.2541  0.3387
 3755WAT     H127264   3.350   2.722   0.019  0.9134 -0.5217  0.4265
 3755WAT     H227265   3.466   2.806   0.070  0.1184 -0.0420  1.4730
 3756WAT      O27266   0.941   4.230   0.913 -0.2997 -0.0788  0.0502
 3756WAT     H127267   0.887   4.265   0.983 -1.7882 -0.8670 -0.6693
 3756WAT     H227268   0.881   4.182   0.857  1.3013 -1.9178 -0.2115
 3757WAT      O27269   4.129   5.532   6.480  0.3799 -0.0403  0.1636
 3757WAT     H127270   4.187   5.542   6.405  0.0991  0.9832  0.0576
 3757WAT     H227271   4.170   5.465   6.535  0.1786 -1.4044 -1.2833
 3758WAT      O27272   5.340   2.254   7.070  0.2689 -1.0005 -0.0917
 3758WAT     H127273   5.301   2.340   7.086 -0.8147 -1.4621 -0.1351
 3758WAT     H227274   5.434   2.268   7.077  0.0559 -0.0895  1.2378
 3759WAT      O27275   0.879   5.396   6.598  0.4912  0.4893 -0.2481
 3759WAT     H127276   0.873   5.308   6.559 -1.6229  0.6673 -0.4678
 3759WAT     H227277   0.834   5.452   6.535  0.8870  1.5427  0.3976
 3760WAT      O27278   4.362   3.548   5.155  0.0569 -0.2047 -0.4261
 3760WAT     H127279   4.431   3.556   5.220 -0.0009 -1.0289 -0.2406
 3760WAT     H227280   4.320   3.464   5.176 -1.5066  0.6361 -0.0363
 3761WAT      O27281   2.823   1.568   6.083 -0.5307 -0.2153 -0.5237
 3761WAT     H127282   2.879   1.503   6.126 -1.0519 -0.1656  0.2508
 3761WAT     H227283   2.759   1.516   6.034 -2.0935 -0.3750  1.5495
 3762WAT      O27284   2.986   0.862   7.282 -0.0693 -0.2473  0.4222
 3762WAT     H127285   3.045   0.794   7.314 -0.9540 -0.9585  0.5921
 3762WAT     H227286   3.033   0.903   7.210 -0.0673 -1.9983 -0.6255
 3763WAT      O27287   4.988   0.671   0.544  0.1143 -0.0060  0.4181
 3763WAT     H127288   5.022   0.617   0.473 -1.7890 -1.1352  0.2972
 3763WAT     H227289   5.046   0.652   0.618  0.2168 -1.2771  0.0364
 3764WAT      O27290   0.937   1.199   5.782 -0.3058 -0.8687 -0.0718
 3764WAT     H127291   1.002   1.179   5.849  1.4762 -0.1008 -1.4639
 3764WAT     H227292   0.855   1.208   5.829  0.7837 -0.8933  1.9166
 3765WAT      O27293   3.065   3.291   5.320 -0.0793 -0.1456 -0.3806
 3765WAT     H127294   3.046   3.369   5.267  0.8259 -0.3394 -1.0260
 3765WAT     H227295   2.983   3.272   5.365 -0.7223  0.3695 -1.2898
 3766WAT      O27296   5.975   3.765   0.343  0.3522 -0.3532  0.2535
 3766WAT     H127297   6.043   3.758   0.411  1.5594 -1.6175 -1.0143
 3766WAT     H227298   5.940   3.677   0.335 -1.2072  0.1976  0.5859
 3767WAT      O27299   0.522   1.696   1.315  0.5566 -0.3087 -0.3845
 3767WAT     H127300   0.475   1.740   1.244 -0.1469  3.2530  2.0198
 3767WAT     H227301   0.601   1.749   1.326  0.2661 -0.2915  1.9472
 3768WAT      O27302   1.430   3.956   5.669  0.4004  0.3336  0.2682
 3768WAT     H127303   1.346   3.911   5.672 -0.0464  1.1814  2.9081
 3768WAT     H227304   1.409   4.044   5.639  0.7974 -0.1773 -1.6577
 3769WAT      O27305   4.577   2.467   7.940  0.7476  0.2632 -0.0434
 3769WAT     H127306   4.494   2.482   7.894  0.5284  1.0472  0.5652
 3769WAT     H227307   4.592   2.373   7.934 -0.2021  0.1097 -0.1468
 3770WAT      O27308   6.022   0.081   7.461 -0.6160  0.3331 -0.1250
 3770WAT     H127309   6.061   0.005   7.504 -2.9231 -1.9356 -1.7632
 3770WAT     H227310   6.082   0.101   7.389 -0.3639 -0.4444 -0.1418
 3771WAT      O27311   2.829   1.003   7.452  0.1757  0.3700  0.7981
 3771WAT     H127312   2.887   0.952   7.395 -0.9392  0.3084 -0.3236
 3771WAT     H227313   2.815   0.946   7.528 -0.2702 -0.6062  0.0062
 3772WAT      O27314   3.963   2.609   2.305 -0.0584  1.0652  0.2352
 3772WAT     H127315   3.989   2.699   2.283  0.1742  0.7070 -1.0286
 3772WAT     H227316   3.868   2.610   2.299 -0.0191  1.0654 -0.4556
 3773WAT      O27317   5.771   2.152   1.405 -0.2418 -0.7037 -0.0363
 3773WAT     H127318   5.840   2.181   1.346  1.3043  2.6951  3.0823
 3773WAT     H227319   5.695   2.138   1.348  1.9259 -0.8826 -3.1346
 3774WAT      O27320   0.528   4.863   1.575 -0.0645 -0.6323 -0.1145
 3774WAT     H127321   0.436   4.886   1.565  0.3200  0.3263 -2.3394
 3774WAT     H227322   0.544   4.862   1.669 -2.0123  0.5847  0.2699
 3775WAT      O27323   5.529   2.883   0.648 -0.1317 -0.2808 -0.7969
 3775WAT     H127324   5.435   2.882   0.633 -0.3270  0.0900  0.3599
 3775WAT     H227325   5.566   2.910   0.564 -0.9083 -2.3178 -1.8773
 3776WAT      O27326   0.962   5.688   1.713  0.0468 -0.1097  0.0901
 3776WAT     H127327   0.957   5.721   1.803  0.6453 -0.1791  0.1530
 3776WAT     H227328   0.933   5.761   1.659  0.8551  0.3561  0.2637
 3777WAT      O27329   4.382   2.225   0.193 -0.1089  0.1927  0.4015
 3777WAT     H127330   4.407   2.133   0.185 -1.4123 -0.3254  1.9075
 3777WAT     H227331   4.459   2.267   0.232 -0.5959 -0.9459  2.8141
 3778WAT      O27332   1.054   4.930   0.670  0.2492  0.0049  0.5050
 3778WAT     H127333   1.061   4.904   0.578 -0.4990  0.0769  0.4226
 3778WAT     H227334   1.104   4.863   0.717 -0.0765 -0.5220  0.1170
 3779WAT      O27335   2.347   0.714   1.069  0.4548 -0.2766 -0.0625
 3779WAT     H127336   2.300   0.726   0.986  0.8771  0.8314 -0.1661
 3779WAT     H227337   2.318   0.629   1.102 -0.4806 -0.2775 -0.8568
 3780WAT      O27338   1.242   2.701   0.129  0.3942 -0.0186 -0.1378
 3780WAT     H127339   1.248   2.711   0.034 -0.2131  0.6560 -0.1135
 3780WAT     H227340   1.256   2.608   0.144 -2.0377 -0.6237 -1.1289
 3781WAT      O27341   1.346   3.080   5.847  0.2677  0.2859 -0.1518
 3781WAT     H127342   1.327   3.172   5.827  0.1591  0.5152  0.9488
 3781WAT     H227343   1.424   3.083   5.902 -0.1334 -0.2164  0.4660
 3782WAT      O27344   5.098   5.497   1.873 -0.7501  0.1454 -0.1091
 3782WAT     H127345   5.107   5.447   1.791 -0.7192 -0.1119  0.0524
 3782WAT     H227346   5.184   5.493   1.913 -1.1182 -0.8977  0.6104
 3783WAT      O27347   2.406   0.688   6.568  0.6623  0.3959  0.1591
 3783WAT     H127348   2.381   0.709   6.658 -1.4604 -1.7299  0.1485
 3783WAT     H227349   2.324   0.688   6.520  1.0514 -3.0668 -0.7537
 3784WAT      O27350   3.751   5.808   6.733 -0.3237  0.4603 -0.1613
 3784WAT     H127351   3.773   5.899   6.716  0.7119 -0.0006 -1.4431
 3784WAT     H227352   3.812   5.758   6.679 -0.1767 -1.0212  1.2905
 3785WAT      O27353   3.734   0.681   1.433 -0.3760 -0.0045 -0.4289
 3785WAT     H127354   3.763   0.683   1.524  1.0678 -0.4360 -0.8482
 3785WAT     H227355   3.713   0.589   1.416 -0.4990  0.0510 -0.5865
 3786WAT      O27356   3.974   0.267   0.564 -0.9383  0.2911 -0.0043
 3786WAT     H127357   4.059   0.258   0.520 -0.8531  0.2030  0.1779
 3786WAT     H227358   3.939   0.350   0.530 -0.0740  1.1465  1.0834
 3787WAT      O27359   0.097   3.674   5.592  0.2283  0.2677  0.2768
 3787WAT     H127360   0.037   3.690   5.665  1.6369 -1.7335  2.0100
 3787WAT     H227361   0.048   3.617   5.533 -0.4647  0.8136  0.3032
 3788WAT      O27362   4.141   1.929   0.094  0.3672 -0.0315  0.2651
 3788WAT     H127363   4.048   1.928   0.074  0.9868 -1.2660 -3.3267
 3788WAT     H227364   4.166   2.022   0.087 -0.3002  0.1000 -0.5435
 3789WAT      O27365   6.071   3.210   6.058  1.1838  0.4771 -0.4920
 3789WAT     H127366   6.070   3.289   6.112 -1.0009  0.5989 -0.6054
 3789WAT     H227367   6.012   3.149   6.102 -2.1195  1.1981 -3.4441
 3790WAT      O27368   2.928   0.137   1.130 -0.1421 -0.3297 -0.3359
 3790WAT     H127369   2.951   0.106   1.043  0.7698  0.3378 -0.3432
 3790WAT     H227370   2.917   0.231   1.119  0.5454 -0.1583  0.3815
 3791WAT      O27371   2.788   4.261   6.283 -0.0039 -0.1004  0.3476
 3791WAT     H127372   2.775   4.227   6.195 -0.0439 -0.5111  0.5099
 3791WAT     H227373   2.702   4.290   6.311 -0.1416 -0.6799  0.5401
 3792WAT      O27374   5.858   2.052   0.090 -0.2074 -0.3436  0.5123
 3792WAT     H127375   5.905   2.122   0.044 -0.2265 -1.5340 -1.4069
 3792WAT     H227376   5.803   2.098   0.154 -0.9476  1.5043 -1.3425
 3793WAT      O27377   5.868   6.225   7.225  0.4346  0.0130  0.4322
 3793WAT     H127378   5.898   6.140   7.259 -0.9241 -1.1794 -1.1566
 3793WAT     H227379   5.934   6.288   7.255  0.8063 -1.3738  2.7717
 3794WAT      O27380   2.023   4.323   7.223  0.0910 -0.1549  0.0920
 3794WAT     H127381   2.044   4.257   7.289 -0.0906  1.0740  1.4248
 3794WAT     H227382   2.099   4.381   7.221 -0.5762  0.7754  0.4682
 3795WAT      O27383   5.210   1.344   6.617 -0.0483 -0.3174  0.1784
 3795WAT     H127384   5.221   1.436   6.640 -0.6177  0.0728 -0.9800
 3795WAT     H227385   5.224   1.342   6.522 -0.1118 -1.4162  0.1785
 3796WAT      O27386   3.489   6.059   6.666  0.1958 -0.5152  0.5386
 3796WAT     H127387   3.445   6.010   6.597 -0.4329 -0.3172  0.7899
 3796WAT     H227388   3.433   6.135   6.681  0.7923 -0.0894  0.6443
 3797WAT      O27389   5.289   5.618   7.450  0.1623 -0.2239 -0.2758
 3797WAT     H127390   5.296   5.554   7.521  1.0237 -0.6027 -0.6856
 3797WAT     H227391   5.200   5.606   7.416 -1.1543  1.5691  2.2042
 3798WAT      O27392   0.499   1.057   0.792 -0.3337  0.2001 -0.4908
 3798WAT     H127393   0.419   1.106   0.772 -0.3973  0.9846  1.4793
 3798WAT     H227394   0.477   1.008   0.872  1.0167  0.1129 -0.1532
 3799WAT      O27395   4.814   3.352   2.295  0.3436  0.0993  0.0577
 3799WAT     H127396   4.907   3.345   2.273  0.8356  0.0283  1.9860
 3799WAT     H227397   4.786   3.262   2.314 -0.3589  0.0037 -1.3295
 3800WAT      O27398   2.428   1.268   6.634  0.2975 -0.1335 -0.5430
 3800WAT     H127399   2.453   1.179   6.611  0.8704  0.1955 -1.2303
 3800WAT     H227400   2.478   1.324   6.574 -1.4170  0.5943 -1.3930
 3801WAT      O27401   5.918   0.674   6.419 -0.6376  0.6232 -0.4378
 3801WAT     H127402   5.984   0.645   6.482  1.0524  0.8933 -1.9830
 3801WAT     H227403   5.884   0.755   6.456 -1.1143 -0.2091  1.0374
 3802WAT      O27404   1.282   4.589   6.084 -0.1111  0.0555 -0.7259
 3802WAT     H127405   1.346   4.654   6.055 -0.1275  0.9495  1.0390
 3802WAT     H227406   1.203   4.607   6.032  0.6822 -0.2810 -2.0818
 3803WAT      O27407   3.625   3.703   6.367 -0.0494 -0.0010 -0.3275
 3803WAT     H127408   3.588   3.790   6.381  0.2640  0.3362 -1.5415
 3803WAT     H227409   3.664   3.680   6.452  1.1225  1.6571 -0.3566
 3804WAT      O27410   0.585   3.071   0.436 -0.1816 -0.3341  0.0590
 3804WAT     H127411   0.529   3.007   0.481  0.1004  0.2168  1.2315
 3804WAT     H227412   0.669   3.064   0.481 -0.1013  0.7363  0.0963
 3805WAT      O27413   4.189   3.755   0.683  0.0308 -0.8573  0.8935
 3805WAT     H127414   4.255   3.813   0.645 -1.6660  0.6131  0.0403
 3805WAT     H227415   4.239   3.696   0.740  2.5743 -2.2836 -2.4781
 3806WAT      O27416   5.446   4.373   6.509  0.6505  0.0527  0.5810
 3806WAT     H127417   5.378   4.436   6.486  0.3737  0.6268  2.8155
 3806WAT     H227418   5.403   4.312   6.570  1.3743 -1.3273 -0.2242
 3807WAT      O27419   3.592   0.312   0.498  0.1778 -0.2954 -0.1611
 3807WAT     H127420   3.643   0.310   0.579 -0.1985  1.1683  0.1244
 3807WAT     H227421   3.633   0.380   0.446 -0.4914 -0.2291 -0.6044
 3808WAT      O27422   1.398   2.530   0.699 -0.3077 -0.4037 -0.1497
 3808WAT     H127423   1.414   2.483   0.618  1.2461 -0.4744  0.1753
 3808WAT     H227424   1.456   2.489   0.763 -0.6369  0.4332  0.7107
 3809WAT      O27425   2.251   1.106   1.851 -0.0722 -0.0090 -0.2083
 3809WAT     H127426   2.183   1.062   1.902 -0.7508  1.1040 -0.1261
 3809WAT     H227427   2.327   1.108   1.910 -0.3579 -0.1544  0.1664
 3810WAT      O27428   2.071   1.288   0.401  0.3164  0.0396 -0.5402
 3810WAT     H127429   2.097   1.198   0.418 -1.0001 -0.1976  0.3738
 3810WAT     H227430   2.030   1.286   0.314 -1.5389 -0.6970  0.2921
 3811WAT      O27431   3.788   5.900   1.131  0.4586 -0.1245 -0.0324
 3811WAT     H127432   3.753   5.984   1.100  1.7938  0.1284 -0.9402
 3811WAT     H227433   3.712   5.854   1.166 -0.6197  0.7518 -1.1254
 3812WAT      O27434   5.853   3.248   0.401 -0.6462  0.2285 -0.1360
 3812WAT     H127435   5.865   3.243   0.496  1.2566  1.1730 -0.2945
 3812WAT     H227436   5.860   3.157   0.372  0.6678  0.1331  0.4367
 3813WAT      O27437   4.595   3.584   7.229  0.0217 -0.6572 -0.0462
 3813WAT     H127438   4.636   3.572   7.315  1.2728  1.1113 -0.3440
 3813WAT     H227439   4.542   3.663   7.238 -1.2673 -1.4408 -0.4425
 3814WAT      O27440   2.370   0.395   0.810 -0.1175 -0.3630  0.3293
 3814WAT     H127441   2.290   0.397   0.863  0.2602 -0.8063  0.9339
 3814WAT     H227442   2.349   0.448   0.733 -0.4690  0.8542  1.2205
 3815WAT      O27443   0.947   2.575   7.454  0.3209  0.6005  0.0982
 3815WAT     H127444   1.024   2.554   7.401  0.0636  0.2161 -0.1299
 3815WAT     H227445   0.934   2.669   7.442 -0.7818  0.2357 -1.9606
 3816WAT      O27446   3.923   1.652   0.900  1.0796 -0.6521  0.0810
 3816WAT     H127447   3.913   1.615   0.812  0.1204 -0.3430  0.0475
 3816WAT     H227448   3.997   1.713   0.893 -0.3627  1.0695 -1.1162
 3817WAT      O27449   1.590   3.024   7.266 -0.3589 -0.0668  0.2568
 3817WAT     H127450   1.615   3.076   7.190 -0.0321 -1.0167 -0.3091
 3817WAT     H227451   1.535   2.954   7.230 -1.1835  0.1415  1.0637
 3818WAT      O27452   4.342   4.594   7.206 -0.2319 -0.5242  0.3573
 3818WAT     H127453   4.309   4.542   7.133 -1.0160 -0.9254  0.9664
 3818WAT     H227454   4.295   4.677   7.200 -1.3929 -1.0891  1.2150
 3819WAT      O27455   3.540   0.975   6.931 -0.2440  0.0247 -0.1909
 3819WAT     H127456   3.479   0.922   6.879  0.4511  0.3913 -1.4175
 3819WAT     H227457   3.499   1.061   6.937 -0.2553  0.0242 -0.2631
 3820WAT      O27458   3.546   0.292   6.669  0.1436 -0.5448  0.0129
 3820WAT     H127459   3.636   0.319   6.686 -0.2258  1.1743 -0.5553
 3820WAT     H227460   3.506   0.281   6.755 -0.0319  2.0785  0.3297
 3821WAT      O27461   4.014   1.843   6.438 -0.5426 -0.4063  0.1240
 3821WAT     H127462   4.034   1.773   6.376 -0.8593 -0.2911 -0.1085
 3821WAT     H227463   4.093   1.896   6.441 -1.2129  0.8237 -1.8081
 3822WAT      O27464   0.352   5.303   7.139  0.0652  0.0715  0.0866
 3822WAT     H127465   0.328   5.212   7.123 -1.0606  0.3648  0.0476
 3822WAT     H227466   0.280   5.354   7.102  1.0178  1.0118 -0.5313
 3823WAT      O27467   2.522   0.280   7.470  0.3562 -0.4029  0.6955
 3823WAT     H127468   2.598   0.251   7.420 -0.9582 -0.2370 -1.5409
 3823WAT     H227469   2.463   0.205   7.471 -1.7184  0.9738 -2.4092
 3824WAT      O27470   5.821   0.347   6.870 -0.0278 -0.8128  0.4957
 3824WAT     H127471   5.789   0.297   6.794 -0.6231 -0.5778  0.5870
 3824WAT     H227472   5.783   0.303   6.945  0.2273 -0.7941  0.6369
 3825WAT      O27473   0.526   4.647   1.990  0.2729  0.2382  0.7927
 3825WAT     H127474   0.561   4.576   1.936 -0.4643  1.5402 -1.5527
 3825WAT     H227475   0.514   4.608   2.076 -1.2455 -2.8606 -0.6510
 3826WAT      O27476   3.240   1.864   5.722  0.4531 -0.0498 -0.3153
 3826WAT     H127477   3.187   1.830   5.650 -0.8609  1.4555 -0.1067
 3826WAT     H227478   3.273   1.786   5.767 -3.1636 -1.2039  0.6828
 3827WAT      O27479   5.078   5.535   2.379 -0.4332 -0.3371  0.8310
 3827WAT     H127480   5.171   5.542   2.402 -0.3866 -0.2681  0.6225
 3827WAT     H227481   5.073   5.569   2.290 -0.6259 -0.5373  0.7668
 3828WAT      O27482   1.171   5.536   7.460 -0.0387 -0.0228  0.3548
 3828WAT     H127483   1.260   5.503   7.467  0.1909  0.5179  0.1014
 3828WAT     H227484   1.122   5.488   7.526  0.3665 -0.5635  0.2678
 3829WAT      O27485   1.798   0.328   0.405  0.3786  0.1766  0.8284
 3829WAT     H127486   1.708   0.357   0.386  0.7780  0.1539 -1.4724
 3829WAT     H227487   1.789   0.235   0.428 -0.1651 -0.0108 -0.0652
 3830WAT      O27488   1.363   1.295   5.758  0.0751  0.0315  0.3817
 3830WAT     H127489   1.344   1.389   5.763 -0.1610 -0.0677  1.8240
 3830WAT     H227490   1.294   1.259   5.703  0.7746  0.8365 -1.0916
 3831WAT      O27491   3.893   1.091   0.310  0.3504  0.5877 -0.0380
 3831WAT     H127492   3.805   1.127   0.309  0.2054  0.2881  0.8103
 3831WAT     H227493   3.895   1.031   0.236 -0.0079  0.9439 -0.3392
 3832WAT      O27494   0.947   5.887   6.536 -0.0860  0.1662  0.0660
 3832WAT     H127495   0.950   5.973   6.578 -1.2673  0.2389  0.0335
 3832WAT     H227496   0.854   5.874   6.516  0.1743 -0.8308 -0.5251
 3833WAT      O27497   6.193   0.905   5.833 -0.4072  0.1343  0.0421
 3833WAT     H127498   6.175   0.987   5.787  1.6566  0.2745 -0.5927
 3833WAT     H227499   6.277   0.919   5.876 -0.6019 -1.2422  0.9164
 3834WAT      O27500   0.279   1.262   7.167 -0.0269 -0.1490  0.0923
 3834WAT     H127501   0.277   1.328   7.236  1.4751  1.4197 -1.2985
 3834WAT     H227502   0.372   1.250   7.147 -0.4185  0.6393 -2.7033
 3835WAT      O27503   3.034   0.831   7.698 -0.2172 -0.1525  0.4625
 3835WAT     H127504   3.000   0.863   7.782  1.1990 -0.8716  1.3510
 3835WAT     H227505   3.107   0.890   7.678 -0.3633 -0.1671 -0.1181
 3836WAT      O27506   3.774   1.221   6.531 -0.0283  0.1366 -0.1216
 3836WAT     H127507   3.809   1.200   6.444  1.7422 -1.0818  0.8267
 3836WAT     H227508   3.848   1.260   6.578 -1.0976  1.2305  0.7122
 3837WAT      O27509   4.301   2.599   0.904  0.6727  1.1026  0.0258
 3837WAT     H127510   4.219   2.556   0.927  1.7026 -0.4160  1.0434
 3837WAT     H227511   4.310   2.586   0.810  1.1640 -1.4401  0.3432
 3838WAT      O27512   2.935   3.149   0.374  0.2017  0.4115 -0.5980
 3838WAT     H127513   2.868   3.085   0.395  1.0337 -0.6992 -1.2293
 3838WAT     H227514   2.966   3.180   0.460  0.2651 -0.5600 -0.2525
 3839WAT      O27515   3.936   6.211   7.358  0.3527 -0.3344 -0.5382
 3839WAT     H127516   3.867   6.163   7.404  0.9642  0.1975  0.9864
 3839WAT     H227517   3.996   6.143   7.327  1.6183 -0.5936  2.2605
 3840WAT      O27518   3.115   1.615   0.267  0.4315 -0.2382 -0.3068
 3840WAT     H127519   3.167   1.535   0.279  1.2887 -0.0888 -2.5281
 3840WAT     H227520   3.177   1.686   0.281 -0.0527  0.0281  0.5167
 3841WAT      O27521   4.122   0.264   0.266 -0.9042  0.6241 -0.0615
 3841WAT     H127522   4.189   0.263   0.334 -0.6037 -0.6643 -0.3620
 3841WAT     H227523   4.157   0.322   0.198 -0.4185  0.5209  0.1015
 3842WAT      O27524   1.642   5.686   6.835  0.6700  0.0433 -0.2621
 3842WAT     H127525   1.714   5.675   6.897  1.5400  0.0203 -1.2501
 3842WAT     H227526   1.606   5.598   6.824  0.6465  0.0127  0.0331
 3843WAT      O27527   5.767   3.235   6.249  0.1462 -0.1900  0.1847
 3843WAT     H127528   5.697   3.271   6.303 -0.8304 -1.0109 -0.5070
 3843WAT     H227529   5.727   3.222   6.163  1.7344  1.3494 -0.8730
 3844WAT      O27530   5.877   0.134   5.960  0.0445  0.0374 -0.4517
 3844WAT     H127531   5.939   0.073   5.921  1.7400  0.0865  1.9158
 3844WAT     H227532   5.804   0.079   5.988  0.5734 -0.5887 -0.2662
 3845WAT      O27533   5.920   4.315   1.389 -0.1559 -0.5300  0.1893
 3845WAT     H127534   5.842   4.316   1.333  0.5204  0.2410 -0.7826
 3845WAT     H227535   5.890   4.276   1.471 -1.1079 -2.0157 -0.8086
 3846WAT      O27536   5.007   4.283   1.208  0.5697  0.2379  0.1193
 3846WAT     H127537   5.092   4.259   1.171  0.2950  0.8412 -0.9486
 3846WAT     H227538   5.017   4.270   1.302  1.3160 -1.2665 -0.1406
 3847WAT      O27539   5.254   1.284   5.708 -0.2416 -0.4462  0.0762
 3847WAT     H127540   5.291   1.360   5.663 -2.7627  0.3650 -0.7905
 3847WAT     H227541   5.205   1.237   5.640  0.2593 -2.1907  0.8672
 3848WAT      O27542   4.036   0.810   6.562 -0.3218  0.2179 -0.1493
 3848WAT     H127543   4.115   0.849   6.524 -0.6206  0.6777 -0.2944
 3848WAT     H227544   3.963   0.853   6.517 -0.6919 -2.4599 -2.3723
 3849WAT      O27545   0.889   0.022   1.126  0.4005  0.4129  0.3495
 3849WAT     H127546   0.909   0.116   1.135  2.0675 -0.0379  1.9605
 3849WAT     H227547   0.953  -0.021   1.183 -0.0769 -1.7472 -0.6779
 3850WAT      O27548   5.731   1.415   1.501  0.2294 -0.0999  0.1638
 3850WAT     H127549   5.807   1.374   1.542  0.5095 -1.7716 -1.8536
 3850WAT     H227550   5.657   1.360   1.528 -0.2233  1.0773  1.4939
 3851WAT      O27551   3.712   5.315   2.497 -0.5785  0.0587 -0.2229
 3851WAT     H127552   3.771   5.356   2.435 -0.4549  0.2800  0.0392
 3851WAT     H227553   3.704   5.224   2.467  0.1448 -0.0545 -0.0727
 3852WAT      O27554   0.894   2.358   2.185  0.6684  0.3851  0.4111
 3852WAT     H127555   0.960   2.311   2.135  0.6658  0.5799  0.2223
 3852WAT     H227556   0.828   2.383   2.121  0.2724 -0.0504  0.6467
 3853WAT      O27557   0.413   5.865   6.586  0.1235  0.3174 -0.9949
 3853WAT     H127558   0.406   5.928   6.515 -0.9203  0.4812 -0.7568
 3853WAT     H227559   0.324   5.831   6.598  0.1933  0.5735  0.4741
 3854WAT      O27560   0.943   3.255   0.013 -0.4455 -0.1534 -0.3744
 3854WAT     H127561   0.957   3.219   0.101  0.4605  2.2565  0.5749
 3854WAT     H227562   0.850   3.278   0.011 -0.5354 -0.4934 -0.1722
 3855WAT      O27563   5.145   4.547   0.022 -0.3799 -0.1593 -0.3861
 3855WAT     H127564   5.073   4.607   0.006  0.6731  1.3639  0.3793
 3855WAT     H227565   5.223   4.593  -0.010  0.7346 -0.2313  2.0033
 3856WAT      O27566   4.466   1.874   1.556 -0.0631  0.5321  0.2559
 3856WAT     H127567   4.528   1.923   1.502 -0.8047  1.0801 -0.1324
 3856WAT     H227568   4.518   1.842   1.630  0.8955  0.0805 -0.5827
 3857WAT      O27569   5.114   4.841   6.129  0.0128  0.2158 -0.1025
 3857WAT     H127570   5.152   4.860   6.043 -0.1002  1.3483  0.0852
 3857WAT     H227571   5.090   4.926   6.164 -0.0477 -0.2446  1.0121
 3858WAT      O27572   3.900   4.558   0.485  0.0288 -0.1908 -0.0681
 3858WAT     H127573   3.881   4.595   0.399 -0.5686 -2.2468 -0.8951
 3858WAT     H227574   3.980   4.506   0.471 -1.3766 -2.4762 -0.0597
 3859WAT      O27575   2.327   4.403   6.451 -0.7393 -0.0593  0.4953
 3859WAT     H127576   2.325   4.387   6.356  0.4307  0.5080  0.3578
 3859WAT     H227577   2.290   4.323   6.489 -1.0716 -0.3671 -0.4242
 3860WAT      O27578   1.645   0.592   7.458 -0.5272 -0.1316 -0.3618
 3860WAT     H127579   1.590   0.642   7.518  0.3088  1.4541 -0.8775
 3860WAT     H227580   1.707   0.655   7.423  2.0381 -1.9486  0.6280
 3861WAT      O27581   3.355   1.667   7.335 -0.2540  0.2212  0.3559
 3861WAT     H127582   3.450   1.664   7.323 -0.1734  0.4710  0.8910
 3861WAT     H227583   3.339   1.610   7.411 -0.6424 -0.5921 -0.3214
 3862WAT      O27584   5.257   3.204   5.698 -0.6221  0.1965  0.0846
 3862WAT     H127585   5.295   3.289   5.720 -0.1531  0.2529 -0.8855
 3862WAT     H227586   5.166   3.223   5.677 -1.0089  0.1773  1.6549
 3863WAT      O27587   1.240   6.058   0.343  0.2260  0.1878 -0.2333
 3863WAT     H127588   1.152   6.021   0.349  0.8091 -1.2822 -0.3771
 3863WAT     H227589   1.296   5.984   0.320  1.3671  1.2880 -1.1409
 3864WAT      O27590   0.255   1.818   7.575 -0.0611 -0.4033  0.1411
 3864WAT     H127591   0.275   1.746   7.635  2.0042  0.3816  0.4778
 3864WAT     H227592   0.216   1.776   7.499  0.4389 -1.7974  0.6313
 3865WAT      O27593   3.155   5.999   6.929 -0.7656 -0.1989  0.1173
 3865WAT     H127594   3.160   6.000   6.833 -0.2864  0.0775  0.1436
 3865WAT     H227595   3.242   5.973   6.957  0.2472  3.1859  0.5651
 3866WAT      O27596   0.243   2.077   7.584 -0.0903 -0.6593  0.1309
 3866WAT     H127597   0.245   1.982   7.570  2.6730 -0.3341 -2.5645
 3866WAT     H227598   0.306   2.092   7.654 -0.4284 -0.7606  0.4639
 3867WAT      O27599   3.396   6.019   6.170 -0.5860  0.5737 -0.6808
 3867WAT     H127600   3.431   5.934   6.144 -0.6003 -0.1348  1.4695
 3867WAT     H227601   3.301   6.009   6.168 -0.5956  0.0275  0.9890
 3868WAT      O27602   4.748   1.609   7.524 -0.2705  0.0254 -0.3461
 3868WAT     H127603   4.713   1.520   7.513 -0.5190 -0.0859  1.0955
 3868WAT     H227604   4.800   1.604   7.604 -0.8026  1.3310  0.1083
 3869WAT      O27605   3.288   3.785   0.174 -0.2739 -0.2527 -0.7533
 3869WAT     H127606   3.222   3.793   0.244  1.2353  0.4570  0.6536
 3869WAT     H227607   3.337   3.706   0.197 -0.3349 -0.5294 -1.5482
 3870WAT      O27608   5.334   1.889   1.629  0.1762 -0.0114  0.3781
 3870WAT     H127609   5.269   1.946   1.670 -2.5709 -2.0276 -0.8506
 3870WAT     H227610   5.377   1.846   1.702 -1.3554 -0.1323  1.2559
 3871WAT      O27611   0.854   5.158   6.774  0.3683  0.4346  0.3193
 3871WAT     H127612   0.850   5.239   6.722 -1.1239 -0.1302 -0.5023
 3871WAT     H227613   0.908   5.099   6.721 -1.2905 -0.1977 -0.7498
 3872WAT      O27614   2.494   1.746   1.975  0.2754  0.1776  0.3145
 3872WAT     H127615   2.489   1.738   1.880 -0.4073 -2.6099  0.4881
 3872WAT     H227616   2.520   1.837   1.991 -1.9013  1.4065 -2.4304
 3873WAT      O27617   5.904   4.612   6.688  0.3592  0.3998 -0.7102
 3873WAT     H127618   5.835   4.588   6.749  0.9341  1.1987  0.2942
 3873WAT     H227619   5.969   4.658   6.742  2.4000 -1.5955 -1.3044
 3874WAT      O27620   1.730   5.200   7.765  0.6822  0.1746 -0.7751
 3874WAT     H127621   1.767   5.261   7.829 -0.4355  0.4514 -0.3701
 3874WAT     H227622   1.673   5.255   7.711 -0.4376 -0.5199 -0.3293
 3875WAT      O27623   4.285   4.576   0.798  0.1288  0.0134  0.0446
 3875WAT     H127624   4.231   4.520   0.854 -0.3262  1.1263  0.7562
 3875WAT     H227625   4.357   4.604   0.855 -1.3524  2.7290  0.8154
 3876WAT      O27626   1.902   1.399   5.644  0.0528 -0.3752 -0.2227
 3876WAT     H127627   1.832   1.419   5.706 -0.0196  1.5491 -0.8833
 3876WAT     H227628   1.895   1.466   5.576  2.5694 -0.0972 -0.2904
 3877WAT      O27629   3.339   1.246   1.326  0.8341 -0.3357 -0.4884
 3877WAT     H127630   3.249   1.220   1.306  0.7656  0.0862 -0.7368
 3877WAT     H227631   3.330   1.305   1.401  0.9880 -1.0053  0.0662
 3878WAT      O27632   0.168   5.602   1.692 -0.1709  0.1639  0.2239
 3878WAT     H127633   0.177   5.671   1.757 -1.3522  1.8017 -1.2649
 3878WAT     H227634   0.112   5.536   1.734  0.5030  0.3395  1.4494
 3879WAT      O27635   4.483   3.453   6.947  0.3601 -0.2861 -0.5036
 3879WAT     H127636   4.549   3.517   6.975  0.9650 -0.9571 -0.3564
 3879WAT     H227637   4.473   3.394   7.023  0.1653 -0.6457 -0.8033
 3880WAT      O27638   2.933   1.135   6.628 -0.3404  0.2047  0.5774
 3880WAT     H127639   2.988   1.119   6.551  0.3920 -0.7575  1.2880
 3880WAT     H227640   2.929   1.231   6.634  0.0935  0.2897 -0.3072
 3881WAT      O27641   4.868   2.967   1.136 -0.4584 -0.1050 -0.1009
 3881WAT     H127642   4.936   2.965   1.069 -1.5889 -1.2714 -1.2870
 3881WAT     H227643   4.879   3.050   1.180  1.3313 -0.0064 -0.6818
 3882WAT      O27644   4.177   1.861   0.600 -0.0576 -0.0338  0.1410
 3882WAT     H127645   4.114   1.930   0.579 -0.2534 -0.5585 -1.0901
 3882WAT     H227646   4.200   1.876   0.692 -0.4460  1.3792  0.0281
 3883WAT      O27647   4.159   4.342   7.665 -0.2046 -0.0737  0.4232
 3883WAT     H127648   4.089   4.322   7.603  1.5228  0.8808 -1.9566
 3883WAT     H227649   4.131   4.423   7.708 -1.1661 -0.4560  0.5496
 3884WAT      O27650   5.239   4.238   7.670  0.3160 -0.1010 -0.0752
 3884WAT     H127651   5.148   4.249   7.641  0.9142  1.0153 -1.6821
 3884WAT     H227652   5.238   4.264   7.762 -1.2353 -1.4626  0.3354
 3885WAT      O27653   3.736   0.431   7.895 -0.2850 -0.6981 -0.1194
 3885WAT     H127654   3.786   0.512   7.883  0.5553 -1.1243  0.4823
 3885WAT     H227655   3.687   0.422   7.814  0.2189 -0.0017 -0.5154
 3886WAT      O27656   4.295   3.169   5.835  0.1668 -0.0355 -0.3186
 3886WAT     H127657   4.376   3.127   5.807 -0.1772  0.8216 -2.8218
 3886WAT     H227658   4.227   3.110   5.804 -0.2236  0.5233 -0.5178
 3887WAT      O27659   1.536   4.489   1.897  0.2104 -0.1622  0.5126
 3887WAT     H127660   1.587   4.565   1.925  0.2627 -0.2735  0.7194
 3887WAT     H227661   1.498   4.516   1.814 -0.4770  0.4210  0.9953
 3888WAT      O27662   1.473   2.212   0.955 -0.3552 -0.0354  0.0850
 3888WAT     H127663   1.542   2.175   0.900 -1.2753  0.1389 -1.2113
 3888WAT     H227664   1.395   2.212   0.900 -1.6561 -1.0881  1.7962
 3889WAT      O27665   1.739   5.954   1.590 -0.1547 -0.2888 -0.3695
 3889WAT     H127666   1.709   6.045   1.599  0.7706  0.0500 -0.5443
 3889WAT     H227667   1.774   5.932   1.677  0.5332 -0.1196 -0.5914
 3890WAT      O27668   1.981   6.090   7.017 -0.5330  0.4200 -0.0941
 3890WAT     H127669   1.975   6.008   7.066  3.4302  0.9752  1.7200
 3890WAT     H227670   1.988   6.063   6.925 -0.2033 -1.2357  0.3883
 3891WAT      O27671   2.494   3.038   0.084 -0.6031  0.6243  0.8327
 3891WAT     H127672   2.463   2.999   0.002 -2.5077  0.4600  1.5592
 3891WAT     H227673   2.465   3.129   0.080 -0.5514  0.6623  1.2443
 3892WAT      O27674   3.387   5.308   7.621  0.1904 -0.3173 -0.6530
 3892WAT     H127675   3.335   5.389   7.616 -0.8932 -0.8785  0.8206
 3892WAT     H227676   3.419   5.296   7.532  0.0217  1.4998 -1.0131
 3893WAT      O27677   3.699   1.858   1.451  0.5320 -0.0500  0.1576
 3893WAT     H127678   3.675   1.771   1.421 -0.7614  0.8460 -1.6081
 3893WAT     H227679   3.682   1.857   1.545 -0.8311 -1.3005 -0.0627
 3894WAT      O27680   5.366   5.745   0.936  0.5054 -0.6896  0.2649
 3894WAT     H127681   5.407   5.769   0.853 -0.5227 -0.5720 -0.2293
 3894WAT     H227682   5.429   5.686   0.978  2.0214  0.9669  0.4287
 3895WAT      O27683   5.246   3.797   0.603  0.3672  0.3623  0.0542
 3895WAT     H127684   5.280   3.727   0.549 -0.2742 -0.8192  1.1141
 3895WAT     H227685   5.320   3.857   0.616  0.7664  0.2008 -1.3283
 3896WAT      O27686   1.019   4.547   0.872  0.3923  1.0699 -0.8433
 3896WAT     H127687   1.018   4.475   0.809  1.1869 -0.0284  0.3568
 3896WAT     H227688   0.957   4.520   0.940 -0.2663  2.1262 -1.0091
 3897WAT      O27689   3.319   4.752   0.644  0.2128 -0.2985 -0.1282
 3897WAT     H127690   3.402   4.801   0.650  0.6753 -1.0792 -0.0018
 3897WAT     H227691   3.332   4.694   0.569 -0.5192  0.1064 -0.5790
 3898WAT      O27692   2.029   4.498   6.187 -0.6733  0.4089 -0.2128
 3898WAT     H127693   2.032   4.420   6.133 -0.3401 -0.3911  0.9213
 3898WAT     H227694   2.099   4.554   6.152  0.3877 -0.6382  0.1717
 3899WAT      O27695   0.510   5.062   0.674 -0.4804  0.1790  0.1826
 3899WAT     H127696   0.588   5.011   0.694 -0.4773  0.7344  1.6417
 3899WAT     H227697   0.457   5.059   0.753 -1.8797 -0.0344 -0.7232
 3900WAT      O27698   5.004   3.045   7.061 -0.1204  0.0402  0.8075
 3900WAT     H127699   4.910   3.059   7.069 -0.6122 -2.6038  0.5094
 3900WAT     H227700   5.028   2.991   7.136  0.9951 -0.0736  0.3963
 3901WAT      O27701   3.224   5.545   1.386  0.2026 -0.4043  0.6334
 3901WAT     H127702   3.163   5.562   1.458  0.0313 -0.7710  0.5736
 3901WAT     H227703   3.180   5.582   1.309  0.5991  0.4206  0.7914
 3902WAT      O27704   5.715   2.126   5.490  0.7396 -0.2864  0.1929
 3902WAT     H127705   5.739   2.074   5.413  0.0186 -0.9821  0.4213
 3902WAT     H227706   5.625   2.099   5.510  0.7254  0.2887  0.9501
 3903WAT      O27707   3.152   3.083   5.735  0.3534 -0.3814  0.1114
 3903WAT     H127708   3.223   3.124   5.783  0.1083 -1.1211  1.1309
 3903WAT     H227709   3.080   3.146   5.740  1.0487  0.5635 -1.3035
 3904WAT      O27710   2.249   2.034   7.495 -0.5341 -0.2050  0.4895
 3904WAT     H127711   2.325   1.986   7.463 -1.2532 -2.5846  2.1195
 3904WAT     H227712   2.189   2.037   7.420 -0.5626 -2.1539  0.3744
 3905WAT      O27713   3.991   5.320   0.248  0.6116 -0.1845 -0.5963
 3905WAT     H127714   3.959   5.391   0.192  1.3164  1.3990  0.9261
 3905WAT     H227715   3.912   5.272   0.273 -0.2586  1.6591  0.4275
 3906WAT      O27716   2.277   3.028   5.948  0.2325 -0.4843 -0.4820
 3906WAT     H127717   2.203   3.002   5.893  0.3008 -1.3442 -0.1906
 3906WAT     H227718   2.275   3.123   5.947 -0.1868 -0.4916 -1.3988
 3907WAT      O27719   0.716   4.960   0.965 -0.6648  0.3661 -0.2134
 3907WAT     H127720   0.660   4.902   0.914  0.4764 -1.6968  0.7351
 3907WAT     H227721   0.802   4.917   0.964  0.4192  2.4034  0.0121
 3908WAT      O27722   4.646   2.793   6.532  0.2917 -0.1953 -0.1897
 3908WAT     H127723   4.675   2.714   6.578 -2.0201 -0.7777  0.4253
 3908WAT     H227724   4.589   2.838   6.594 -1.0985  0.1824 -1.6466
 3909WAT      O27725   5.771   0.311   7.316  0.6831  0.5174 -0.2446
 3909WAT     H127726   5.821   0.357   7.250  1.1641  1.0680  0.4932
 3909WAT     H227727   5.819   0.325   7.397 -0.6686  1.1008  0.4929
 3910WAT      O27728   3.095   1.807   7.925  0.4843 -0.1767 -0.6773
 3910WAT     H127729   3.096   1.772   8.014  3.0062  0.4183 -0.3990
 3910WAT     H227730   3.154   1.750   7.876  2.2974  1.7825 -0.9271
 3911WAT      O27731   0.576   4.869   1.853 -0.1933  0.0861  1.1820
 3911WAT     H127732   0.613   4.799   1.906 -0.1284  0.3510  1.4882
 3911WAT     H227733   0.627   4.946   1.875 -1.1539  0.5402  1.8815
 3912WAT      O27734   2.869   5.519   0.932 -0.9286  0.0296  0.4960
 3912WAT     H127735   2.895   5.480   0.848 -0.4812  1.0520  0.1432
 3912WAT     H227736   2.874   5.613   0.917 -1.5855  0.2324  1.4546
 3913WAT      O27737   0.554   0.082   0.150 -0.2629  0.9112  0.2105
 3913WAT     H127738   0.612   0.044   0.083 -0.9969  0.2879 -0.0950
 3913WAT     H227739   0.521   0.006   0.198 -2.7361  0.9860 -1.2085
 3914WAT      O27740   3.926   4.851   6.705 -0.1245  0.2440  0.1989
 3914WAT     H127741   3.857   4.917   6.706  0.2657  0.6641  1.5240
 3914WAT     H227742   3.971   4.862   6.788  1.6431  0.0722 -0.6836
 3915WAT      O27743   6.155   1.477   0.897  0.6209  0.0242  0.4690
 3915WAT     H127744   6.101   1.403   0.868 -1.2151  1.5264 -0.1216
 3915WAT     H227745   6.236   1.436   0.929  0.3745 -2.0999 -1.3893
 3916WAT      O27746   3.895   1.892   6.064 -0.5300 -0.3411  0.5886
 3916WAT     H127747   3.834   1.946   6.115  0.6839  0.2979  1.4409
 3916WAT     H227748   3.926   1.826   6.126 -1.3063 -1.4678 -0.1950
 3917WAT      O27749   3.725   6.060   7.526 -0.2517 -0.4210 -0.7811
 3917WAT     H127750   3.644   6.110   7.537 -0.8964 -1.6122  0.0396
 3917WAT     H227751   3.704   5.994   7.461 -0.1371 -1.1283 -0.1081
 3918WAT      O27752   3.766   1.620   7.055  0.1419 -0.1934  0.1598
 3918WAT     H127753   3.854   1.584   7.047  0.2145  0.3751 -2.3189
 3918WAT     H227754   3.770   1.705   7.011 -1.5703  0.0201  0.3308
 3919WAT      O27755   3.311   3.523   0.964 -0.0719  1.0396 -0.9903
 3919WAT     H127756   3.300   3.554   0.874  1.0098  1.7997 -0.8756
 3919WAT     H227757   3.286   3.597   1.019  0.2649  0.9297 -0.6810
 3920WAT      O27758   5.030   2.588   0.423 -0.0008  0.7076  0.2542
 3920WAT     H127759   5.100   2.562   0.483 -0.0093 -1.5796 -0.6055
 3920WAT     H227760   4.981   2.655   0.470  1.6709  1.0346  1.6112
 3921WAT      O27761   1.368   4.797   1.285  0.6960 -0.2597  0.3549
 3921WAT     H127762   1.275   4.788   1.264  1.0075 -1.2925 -0.6673
 3921WAT     H227763   1.387   4.890   1.270  0.3927 -0.5118 -2.0045
 3922WAT      O27764   4.539   0.646   1.990  0.1105  0.3811  0.2425
 3922WAT     H127765   4.455   0.641   1.944  0.5024  0.2289 -0.4657
 3922WAT     H227766   4.604   0.656   1.920  0.6616  0.7218  0.8010
 3923WAT      O27767   4.770   4.484   6.652 -0.2264 -0.5087  0.6892
 3923WAT     H127768   4.772   4.430   6.573  0.4737 -0.8607  0.9373
 3923WAT     H227769   4.859   4.479   6.686  0.2843  1.9522 -0.0453
 3924WAT      O27770   3.633   1.877   7.306 -0.4940  0.4728  0.9084
 3924WAT     H127771   3.590   1.880   7.221 -0.6382  0.3758  0.9774
 3924WAT     H227772   3.626   1.965   7.341 -1.5062  0.2267  1.3522
 3925WAT      O27773   1.571   2.935   1.109 -0.0522  0.3076  0.1564
 3925WAT     H127774   1.523   2.986   1.175 -1.0118 -2.4221  1.7218
 3925WAT     H227775   1.633   2.883   1.160  0.8145 -0.1903 -1.3517
 3926WAT      O27776   3.631   1.685   0.018 -0.3665  0.6019  0.6694
 3926WAT     H127777   3.705   1.739   0.046  0.3340  0.4738 -0.8503
 3926WAT     H227778   3.581   1.741  -0.041 -0.9967  0.3822  0.9814
 3927WAT      O27779   3.252   1.683   1.643 -0.5486 -0.3977  0.1261
 3927WAT     H127780   3.300   1.736   1.707  1.3182 -0.5306 -1.0757
 3927WAT     H227781   3.214   1.611   1.693 -0.8035  0.5714  1.3586
 3928WAT      O27782   2.691   1.574   6.604 -0.1659  0.1105 -0.0962
 3928WAT     H127783   2.716   1.553   6.694  1.8908  0.5719 -0.5185
 3928WAT     H227784   2.713   1.495   6.555 -0.6118  0.1233 -0.3248
 3929WAT      O27785   0.622   0.159   7.095  0.1243  0.3336 -0.8895
 3929WAT     H127786   0.546   0.145   7.039 -0.9726  0.6284  0.4832
 3929WAT     H227787   0.652   0.071   7.118  0.9759  0.1852 -2.3713
 3930WAT      O27788   1.508   1.527   6.702 -0.1569  0.5239 -0.1376
 3930WAT     H127789   1.563   1.458   6.664 -1.4286 -1.4453  1.4012
 3930WAT     H227790   1.567   1.575   6.760  0.2596 -0.8307  0.6208
 3931WAT      O27791   3.878   3.454   6.731 -0.7484  0.1355 -0.1038
 3931WAT     H127792   3.843   3.534   6.771  1.0764  0.4283  0.9958
 3931WAT     H227793   3.972   3.469   6.725 -0.5237 -1.4626 -1.0020
 3932WAT      O27794   5.959   3.305   7.218 -0.2739 -0.6777 -0.1102
 3932WAT     H127795   5.925   3.216   7.228  0.0246 -0.7697  0.1050
 3932WAT     H227796   6.045   3.303   7.261 -0.7809  0.0261  1.0041
 3933WAT      O27797   1.604   0.139   0.902  0.1930 -0.0805  0.2121
 3933WAT     H127798   1.540   0.085   0.856  0.7966 -2.3980  1.9296
 3933WAT     H227799   1.689   0.112   0.865  0.3734  2.0917 -1.1766
 3934WAT      O27800   1.259   1.686   7.341  0.2411  0.1870 -0.5884
 3934WAT     H127801   1.170   1.662   7.315 -0.3686  0.4684  1.0885
 3934WAT     H227802   1.313   1.614   7.310 -0.9950 -1.4417  0.7885
 3935WAT      O27803   1.649   2.484   0.788  0.1247  0.2885  0.3116
 3935WAT     H127804   1.658   2.492   0.883  2.1785 -0.7186  0.2476
 3935WAT     H227805   1.710   2.414   0.764  1.9642  2.5465 -2.0968
 3936WAT      O27806   4.373   3.704   0.348 -0.4230  0.2002  0.2437
 3936WAT     H127807   4.346   3.625   0.395 -0.6915 -0.0316 -0.2902
 3936WAT     H227808   4.375   3.773   0.415 -0.8843 -0.1053  0.5767
 3937WAT      O27809   2.837   5.158   7.879  0.3164 -0.0538 -0.1565
 3937WAT     H127810   2.922   5.125   7.909 -0.3945 -1.6329  0.2359
 3937WAT     H227811   2.773   5.101   7.921 -0.9368  0.9457 -0.6470
 3938WAT      O27812   2.316   5.987   0.365 -0.4475  0.2932 -0.7014
 3938WAT     H127813   2.267   5.970   0.445  1.1607  0.2568  0.3349
 3938WAT     H227814   2.278   5.929   0.300 -0.1724 -1.5755  0.7173
 3939WAT      O27815   4.653   3.615   6.511 -0.1816  0.1180  0.6580
 3939WAT     H127816   4.659   3.563   6.431 -1.3655  0.8723  0.0588
 3939WAT     H227817   4.566   3.656   6.508  0.4701  1.6576  1.4044
 3940WAT      O27818   1.478   1.464   0.503 -0.1774 -0.1455  0.2499
 3940WAT     H127819   1.430   1.407   0.444 -0.9138  0.7278 -0.0215
 3940WAT     H227820   1.532   1.519   0.446  1.3238 -1.2258  0.5549
 3941WAT      O27821   2.744   0.578   1.065  0.3247  0.3117 -0.0469
 3941WAT     H127822   2.799   0.509   1.101 -0.5576 -0.1374  0.4635
 3941WAT     H227823   2.803   0.630   1.011  1.7613  1.0991  2.1557
 3942WAT      O27824   6.184   5.935   2.126  0.1971 -0.7259  0.2149
 3942WAT     H127825   6.150   5.884   2.199  0.7883  0.1031  1.0971
 3942WAT     H227826   6.280   5.927   2.133  0.3450  1.0259  0.8155
 3943WAT      O27827   5.171   4.550   0.328  0.1237 -0.1173 -0.5757
 3943WAT     H127828   5.134   4.531   0.242  0.2466  0.5967 -0.7954
 3943WAT     H227829   5.099   4.593   0.376  0.8103  1.9077 -1.2371
 3944WAT      O27830   2.327   3.318   7.346 -0.0941  0.0668 -0.1186
 3944WAT     H127831   2.315   3.313   7.441  0.1850  1.5139  0.0126
 3944WAT     H227832   2.276   3.245   7.312  0.7665 -1.2085  1.2063
 3945WAT      O27833   3.634   3.366   0.457  0.3918  0.2129 -0.0097
 3945WAT     H127834   3.653   3.408   0.373 -0.4263  0.0811 -0.2633
 3945WAT     H227835   3.709   3.308   0.471  0.0137 -0.5884 -1.1860
 3946WAT      O27836   4.586   4.784   0.768 -0.0334 -0.6527  0.4401
 3946WAT     H127837   4.598   4.754   0.859 -0.6444 -1.9145  0.1282
 3946WAT     H227838   4.598   4.705   0.715 -0.6406 -0.1247 -0.5030
 3947WAT      O27839   1.336   3.521   1.206  0.4334 -0.3592  0.3166
 3947WAT     H127840   1.241   3.512   1.207  0.3414  0.6142  0.9573
 3947WAT     H227841   1.369   3.437   1.239 -0.1294 -1.2536 -1.2630
 3948WAT      O27842   3.500   2.971   7.484 -0.5748 -0.6464  0.2640
 3948WAT     H127843   3.594   2.957   7.473 -0.2846 -0.4445  2.1200
 3948WAT     H227844   3.465   2.969   7.395  1.3669  0.5688 -0.6064
 3949WAT      O27845   5.879   3.424   6.981  0.1584 -0.4840 -0.1510
 3949WAT     H127846   5.792   3.398   6.951 -0.7022  1.2911  0.6498
 3949WAT     H227847   5.889   3.384   7.067  0.0870 -0.5952 -0.1943
 3950WAT      O27848   4.830   3.141   7.746 -0.2212 -0.5126  0.1605
 3950WAT     H127849   4.858   3.124   7.836 -2.5563  0.0492  1.0676
 3950WAT     H227850   4.756   3.081   7.733 -1.4199  1.0568 -0.5120
 3951WAT      O27851   4.147   1.448   7.731  0.6080  0.5843  0.8597
 3951WAT     H127852   4.097   1.469   7.652 -1.7182  2.0721  2.6123
 3951WAT     H227853   4.143   1.353   7.738  0.5671  0.4624 -0.6006
 3952WAT      O27854   0.802   5.860   0.758  0.1214  0.3301  0.0885
 3952WAT     H127855   0.877   5.834   0.706  1.9161  2.0521  1.6403
 3952WAT     H227856   0.764   5.777   0.789  0.2923 -0.6251 -2.0792
 3953WAT      O27857   4.397   2.110   6.277 -0.4821 -0.1093 -0.0835
 3953WAT     H127858   4.361   2.108   6.189 -0.1004 -0.5446 -0.2384
 3953WAT     H227859   4.490   2.094   6.265 -0.2044  1.1347  0.3036
 3954WAT      O27860   3.388   5.497   7.305  0.0068 -0.1602  0.7065
 3954WAT     H127861   3.307   5.508   7.354  1.8165  0.0579  3.9047
 3954WAT     H227862   3.405   5.403   7.308 -0.5475 -0.3530 -0.8608
 3955WAT      O27863   0.254   5.010   1.568 -0.6355  0.1022 -0.6172
 3955WAT     H127864   0.192   5.067   1.613 -0.7689 -0.4950 -0.0393
 3955WAT     H227865   0.209   4.927   1.559  0.6857 -0.9397  1.4792
 3956WAT      O27866   2.349   2.861   6.164  0.2243  0.1104 -0.0655
 3956WAT     H127867   2.325   2.924   6.096  0.1843 -1.0535 -1.1718
 3956WAT     H227868   2.315   2.778   6.132  0.6207 -0.5518  1.1767
 3957WAT      O27869   2.586   3.887   7.031 -0.0755 -0.1766  0.4228
 3957WAT     H127870   2.654   3.918   6.971 -1.1958 -0.6268 -1.1482
 3957WAT     H227871   2.572   3.961   7.091 -0.5049  1.2028 -1.3060
 3958WAT      O27872   1.708   3.753   6.200  0.0293  0.0681  0.0684
 3958WAT     H127873   1.790   3.735   6.247 -0.1358  1.3027  0.8775
 3958WAT     H227874   1.731   3.822   6.138  0.2013 -1.4210 -1.6295
 3959WAT      O27875   1.387   2.292   1.793  0.8646 -0.3296 -0.2722
 3959WAT     H127876   1.380   2.281   1.888  1.3860 -0.7678 -0.2842
 3959WAT     H227877   1.446   2.367   1.782 -2.0852  2.2124 -0.2050
 3960WAT      O27878   2.887   1.859   1.397 -0.0890 -0.2891 -0.1396
 3960WAT     H127879   2.910   1.825   1.310 -0.5114  0.3515 -0.5043
 3960WAT     H227880   2.883   1.781   1.452  1.1674 -0.6122 -0.4661
 3961WAT      O27881   2.245   2.572   1.173 -0.5078  0.0816  0.0380
 3961WAT     H127882   2.219   2.623   1.096 -0.3424  0.1131  0.0030
 3961WAT     H227883   2.188   2.496   1.172 -0.9458  0.4030  0.2412
 3962WAT      O27884   4.494   3.712   1.097  0.4561 -0.1113 -0.2283
 3962WAT     H127885   4.536   3.662   1.166 -0.4955  0.6130  0.9292
 3962WAT     H227886   4.514   3.803   1.117 -0.4014  0.1550 -0.4933
 3963WAT      O27887   5.725   5.542   6.105  0.2516 -0.4488 -0.5363
 3963WAT     H127888   5.656   5.597   6.067  1.2193  0.0378 -1.6492
 3963WAT     H227889   5.770   5.505   6.030 -0.8598 -3.4809  0.1537
 3964WAT      O27890   0.899   0.243   7.895  0.0164 -0.1159  0.2896
 3964WAT     H127891   0.821   0.206   7.854  0.3894 -0.4370 -0.1420
 3964WAT     H227892   0.880   0.240   7.989 -0.6157  0.1027  0.1787
 3965WAT      O27893   6.128   1.690   0.659 -0.7398 -0.8855 -0.0264
 3965WAT     H127894   6.173   1.657   0.737  2.6200  0.8222 -1.0437
 3965WAT     H227895   6.076   1.764   0.691 -0.1793 -0.8222  0.7630
 3966WAT      O27896   4.631   5.380   6.157  0.3802  0.0753  0.1700
 3966WAT     H127897   4.567   5.450   6.145  0.6687  0.1952 -0.7709
 3966WAT     H227898   4.578   5.301   6.170  0.0263  0.1270 -0.8478
 3967WAT      O27899   3.153   5.342   0.785  0.2832  0.1849 -0.2461
 3967WAT     H127900   3.242   5.351   0.751 -0.4542  2.3074 -1.9078
 3967WAT     H227901   3.097   5.353   0.707 -1.4408  0.3257  0.9554
 3968WAT      O27902   5.097   4.300   6.275  0.0938 -0.5449 -0.8659
 3968WAT     H127903   5.100   4.214   6.317  1.6995  0.4516  1.2790
 3968WAT     H227904   5.171   4.299   6.214  1.9641  0.1864  1.2406
 3969WAT      O27905   4.477   0.388   6.751  0.5923  0.2352 -0.4907
 3969WAT     H127906   4.552   0.434   6.714 -0.1036  0.3785 -1.8112
 3969WAT     H227907   4.410   0.456   6.760 -0.0093 -0.2480 -1.1937
 3970WAT      O27908   6.076   0.166   1.341 -0.3616  0.1122 -0.1004
 3970WAT     H127909   6.028   0.083   1.347  1.1240 -0.8017 -0.2826
 3970WAT     H227910   6.111   0.180   1.429 -0.8559  0.7087  0.0038
 3971WAT      O27911   5.991   4.371   7.929  0.5242  0.8431  0.0552
 3971WAT     H127912   5.991   4.367   7.834  0.7170  0.3134  0.0731
 3971WAT     H227913   5.941   4.450   7.950 -0.9156  0.0902 -0.4473
 3972WAT      O27914   4.560   3.947   1.174 -0.1600 -0.3479 -0.0668
 3972WAT     H127915   4.636   3.979   1.222  0.1603 -1.2531  0.0640
 3972WAT     H227916   4.494   4.015   1.183  0.5889  0.3862 -0.0644
 3973WAT      O27917   5.446   2.578   7.221  0.0567 -0.2157  0.2058
 3973WAT     H127918   5.519   2.576   7.283  0.6887  1.4970 -0.4228
 3973WAT     H227919   5.470   2.645   7.158 -1.9425  0.1918 -0.1851
 3974WAT      O27920   4.595   2.438   1.243 -0.1901  0.9136 -0.1900
 3974WAT     H127921   4.527   2.489   1.199 -0.5026  0.5229 -0.1620
 3974WAT     H227922   4.550   2.360   1.274 -0.0366  1.3086  1.0851
 3975WAT      O27923   0.201   4.928   7.717  0.4811 -0.6746 -0.0975
 3975WAT     H127924   0.227   4.863   7.653  1.5720 -1.7586  1.4069
 3975WAT     H227925   0.272   4.931   7.780 -0.6856  0.1371  1.2489
 3976WAT      O27926   0.967   1.948   1.186  0.4893 -0.1445  0.1518
 3976WAT     H127927   1.041   1.995   1.148  0.9399 -1.4860 -0.7007
 3976WAT     H227928   0.999   1.859   1.197 -1.5124 -1.1951 -1.8578
 3977WAT      O27929   1.069   2.746   1.091 -0.8821  0.2355  0.1547
 3977WAT     H127930   1.101   2.700   1.014  0.5662  0.6914  0.4507
 3977WAT     H227931   0.974   2.748   1.080 -0.7517 -0.2359 -1.3082
 3978WAT      O27932   6.172   2.149   7.465  0.3637  0.0204 -0.1083
 3978WAT     H127933   6.165   2.137   7.560  1.2738 -0.5097 -0.1018
 3978WAT     H227934   6.253   2.197   7.452  0.5562 -0.4414 -0.6575
 3979WAT      O27935   2.762   4.432   0.740  0.0446 -0.1153 -0.0127
 3979WAT     H127936   2.712   4.489   0.682  0.4530  0.3003  0.0440
 3979WAT     H227937   2.823   4.490   0.785  1.8099 -0.8408 -1.3457
 3980WAT      O27938   2.662   3.792   7.421  0.1071 -0.5343 -0.0410
 3980WAT     H127939   2.710   3.749   7.491 -0.7553  0.7443  1.3781
 3980WAT     H227940   2.702   3.879   7.413 -1.5010  0.3266  0.7491
 3981WAT      O27941   0.801   5.115   1.581 -0.2725 -0.0269 -0.0989
 3981WAT     H127942   0.864   5.091   1.650  0.8947  2.4229 -0.1800
 3981WAT     H227943   0.726   5.150   1.629  0.6883  2.0225  0.0294
 3982WAT      O27944   4.290   0.134   0.509  0.0024  0.2165 -0.0562
 3982WAT     H127945   4.242   0.055   0.533  1.8103 -0.5658  1.2573
 3982WAT     H227946   4.346   0.107   0.436 -0.5082  0.7401 -0.6587
 3983WAT      O27947   1.150   1.221   7.803 -0.1783 -0.5180 -0.3633
 3983WAT     H127948   1.078   1.202   7.744 -0.7934  2.7792 -0.8478
 3983WAT     H227949   1.109   1.247   7.886  0.4566  0.2695 -0.2738
 3984WAT      O27950   3.225   1.107   0.819  0.0332  0.0797 -0.0031
 3984WAT     H127951   3.235   1.047   0.893  1.2800  0.4146  0.1181
 3984WAT     H227952   3.177   1.056   0.753  0.8091 -0.9524  0.2053
 3985WAT      O27953   5.491   5.652   2.199 -0.7743  0.2240 -0.3509
 3985WAT     H127954   5.465   5.664   2.107 -2.0907  0.0884 -0.0096
 3985WAT     H227955   5.473   5.736   2.240  1.2778  0.7969 -0.5179
 3986WAT      O27956   2.855   2.529   1.885  0.1403  0.4869 -0.0164
 3986WAT     H127957   2.779   2.587   1.891 -0.5391 -0.4154  0.2077
 3986WAT     H227958   2.928   2.588   1.868 -0.4110  1.4979  1.0052
 3987WAT      O27959   5.117   2.188   0.155  0.0821  0.0396 -0.1957
 3987WAT     H127960   5.073   2.267   0.123  1.0544 -0.0937 -2.0510
 3987WAT     H227961   5.196   2.220   0.198  0.6174  0.1133 -1.1893
 3988WAT      O27962   0.463   2.464   2.454 -0.4944  0.7053  0.0037
 3988WAT     H127963   0.527   2.534   2.460 -0.3796  0.5275  1.0852
 3988WAT     H227964   0.507   2.388   2.494  0.2772 -0.6847 -3.1331
 3989WAT      O27965   5.458   2.434   2.697  0.2952 -0.5157  0.6529
 3989WAT     H127966   5.443   2.405   2.607 -0.7084 -0.3712  0.7597
 3989WAT     H227967   5.553   2.425   2.710  0.7652  1.2783 -1.0447
 3990WAT      O27968   5.450   1.907   0.809  0.2349 -0.0766  0.4337
 3990WAT     H127969   5.498   1.838   0.764  1.2996  0.9647 -0.0925
 3990WAT     H227970   5.518   1.972   0.832 -0.4604 -0.0239  2.4803
 3991WAT      O27971   5.406   4.580   1.043  0.6789  0.2366  0.1816
 3991WAT     H127972   5.381   4.545   1.129 -0.8168 -1.6218 -0.9398
 3991WAT     H227973   5.342   4.543   0.983  2.5622  0.3149 -1.9762
 3992WAT      O27974   6.159   1.255   1.877  0.3404 -0.1053  0.0072
 3992WAT     H127975   6.157   1.230   1.785 -0.5897  0.3285 -0.0991
 3992WAT     H227976   6.178   1.349   1.877  0.4167 -0.1186  0.2630
 3993WAT      O27977   2.865   3.335   6.223  0.0506  0.3313 -0.4810
 3993WAT     H127978   2.811   3.414   6.231 -0.2534  0.0205  0.7967
 3993WAT     H227979   2.907   3.344   6.138 -1.1744  1.1137 -1.0355
 3994WAT      O27980   1.678   2.880   0.572  0.1272 -0.1715  0.1054
 3994WAT     H127981   1.635   2.875   0.487 -0.2607  0.0004  0.2893
 3994WAT     H227982   1.626   2.943   0.622  0.0138 -0.6938  0.6637
 3995WAT      O27983   3.287   4.852   6.571 -0.0361 -0.5163 -0.2062
 3995WAT     H127984   3.281   4.913   6.644 -3.5000 -0.4619 -0.3690
 3995WAT     H227985   3.380   4.849   6.549  1.0529 -0.0615  3.7470
 3996WAT      O27986   1.263   2.237   7.405 -0.1122 -0.1032 -0.2767
 3996WAT     H127987   1.238   2.162   7.351 -0.0560 -0.2465 -0.1057
 3996WAT     H227988   1.295   2.302   7.342  1.8838 -1.0106 -0.2813
 3997WAT      O27989   0.989   4.269   1.605 -0.5311 -0.1538  0.5138
 3997WAT     H127990   1.067   4.321   1.621 -0.3768 -0.1262 -0.2614
 3997WAT     H227991   1.010   4.182   1.640 -0.0533 -0.2135  0.0893
 3998WAT      O27992   3.243   2.913   0.646  0.0283 -0.2907  0.0708
 3998WAT     H127993   3.235   2.817   0.645 -0.8588 -0.2232 -0.2434
 3998WAT     H227994   3.309   2.932   0.579 -0.8414 -0.6103 -0.9009
 3999WAT      O27995   1.763   3.341   1.427  0.0755  0.1882  0.3550
 3999WAT     H127996   1.851   3.316   1.456 -0.4457 -1.4898  0.6128
 3999WAT     H227997   1.755   3.305   1.339 -0.5655 -0.2429  0.5786
 4000WAT      O27998   4.276   1.259   1.026  0.1461 -0.3661 -0.3756
 4000WAT     H127999   4.276   1.221   1.113  0.5289 -1.2758 -0.7613
 4000WAT     H228000   4.301   1.187   0.968  2.6321  0.8238 -0.9601
 4001WAT      O28001   4.998   1.921   6.309  0.6376 -0.4425 -0.1072
 4001WAT     H128002   4.965   1.960   6.228  0.3480  0.8818  0.6198
 4001WAT     H228003   5.089   1.949   6.314  0.9423 -1.3213 -0.4297
 4002WAT      O28004   4.242   1.362   7.039 -0.0653  0.1049  0.0910
 4002WAT     H128005   4.150   1.370   7.015 -0.3891 -0.4673  1.0676
 4002WAT     H228006   4.242   1.367   7.135  0.6115 -2.2997  0.2952
 4003WAT      O28007   5.823   5.072   0.243 -0.5406  0.5219  0.0186
 4003WAT     H128008   5.914   5.043   0.247  0.2306  2.6239 -0.9012
 4003WAT     H228009   5.798   5.063   0.151 -1.1109  0.4070  0.1755
 4004WAT      O28010   5.440   3.356   0.900  0.1916  0.2523 -0.1177
 4004WAT     H128011   5.367   3.415   0.878  1.1507  1.6270  0.2102
 4004WAT     H228012   5.478   3.332   0.816 -0.2460  0.0628 -0.2608
 4005WAT      O28013   4.091   5.563   6.912  0.1636  0.7856  0.3110
 4005WAT     H128014   4.125   5.476   6.930  0.9432  1.3356  1.7054
 4005WAT     H228015   4.145   5.597   6.841 -1.3309 -0.5001 -1.5566
 4006WAT      O28016   3.973   3.780   6.437 -0.3699 -0.5298  0.1743
 4006WAT     H128017   3.964   3.872   6.415  0.4528 -0.2821  0.8334
 4006WAT     H228018   3.984   3.736   6.352 -2.3486 -0.2502 -0.2741
 4007WAT      O28019   1.690   1.949   1.583  0.0248 -0.2131  0.0896
 4007WAT     H128020   1.756   1.973   1.518 -0.0482  0.1371  0.1452
 4007WAT     H228021   1.741   1.924   1.660  0.1796 -2.0326 -0.5413
 4008WAT      O28022   5.034   0.181   0.908  0.4496  0.3412 -0.3211
 4008WAT     H128023   5.099   0.215   0.847  0.1128  0.6537 -0.5104
 4008WAT     H228024   5.045   0.086   0.905  2.0565  0.4527  0.9373
 4009WAT      O28025   0.292   4.069   0.640 -1.0032  0.4908 -0.6929
 4009WAT     H128026   0.204   4.075   0.604 -1.2323 -0.5870 -0.3571
 4009WAT     H228027   0.312   4.157   0.671 -2.6442  0.3636  0.8331
 4010WAT      O28028   0.809   3.690   0.264  0.5784  0.1254  0.2698
 4010WAT     H128029   0.745   3.757   0.242 -0.0465 -0.5375  0.0418
 4010WAT     H228030   0.769   3.641   0.336  1.2911  0.3712  0.8423
 4011WAT      O28031   0.058   1.327   6.955 -0.6432 -0.0042 -1.2199
 4011WAT     H128032   0.103   1.309   7.038 -2.3814  0.1210 -0.1886
 4011WAT     H228033   0.009   1.247   6.937 -0.7865  0.2070 -1.7696
 4012WAT      O28034   2.042   3.072   7.873  0.3767  0.3605  0.1432
 4012WAT     H128035   1.975   3.131   7.906  1.6144  2.2201 -0.4968
 4012WAT     H228036   2.047   3.092   7.779  0.1413 -1.4980 -0.2996
 4013WAT      O28037   4.174   0.606   1.897  0.0959 -0.0508  0.7740
 4013WAT     H128038   4.175   0.664   1.821  1.0688 -0.0098  0.8054
 4013WAT     H228039   4.107   0.643   1.954 -2.1315 -1.2172 -0.9064
 4014WAT      O28040   0.053   4.832   0.848  0.2785 -0.2770 -0.2896
 4014WAT     H128041   0.054   4.738   0.833 -0.7973 -0.3447 -0.0288
 4014WAT     H228042   0.023   4.869   0.765  2.4506 -0.0018 -1.0059
 4015WAT      O28043   5.403   3.837   7.498 -0.2363  0.6293 -0.3450
 4015WAT     H128044   5.360   3.835   7.583 -2.0359  0.1768 -1.2023
 4015WAT     H228045   5.455   3.917   7.498  1.0691 -0.1398  1.7287
 4016WAT      O28046   3.182   5.264   6.540 -0.2599  0.3517 -0.0588
 4016WAT     H128047   3.095   5.228   6.558  0.7879 -1.1296  2.4153
 4016WAT     H228048   3.234   5.189   6.510  0.5303  0.9386 -0.1955
 4017WAT      O28049   5.479   3.141   2.122  0.3955 -0.6853 -0.2532
 4017WAT     H128050   5.435   3.090   2.054  0.4601 -0.3293 -0.5664
 4017WAT     H228051   5.519   3.075   2.179  1.2141 -0.9836 -1.1428
 4018WAT      O28052   4.517   0.155   6.400  0.8567  0.2621  0.2233
 4018WAT     H128053   4.430   0.126   6.422  0.4434  0.4377 -1.1214
 4018WAT     H228054   4.529   0.236   6.450  0.3134  0.1646  0.5132
 4019WAT      O28055   6.025   2.686   0.526  0.4723  0.3639 -0.1235
 4019WAT     H128056   5.953   2.728   0.477  0.8544  0.9074 -0.2335
 4019WAT     H228057   5.983   2.614   0.573 -0.2169  0.9068  0.1158
 4020WAT      O28058   4.783   0.472   0.540  0.2342 -0.5372  0.9563
 4020WAT     H128059   4.853   0.535   0.557  0.1479 -0.3875  0.7616
 4020WAT     H228060   4.792   0.407   0.609 -0.5843  0.4641  2.0531
 4021WAT      O28061   3.823   5.392   6.514  0.0823  0.5412  0.3003
 4021WAT     H128062   3.836   5.480   6.549 -3.1006  0.3505  2.3905
 4021WAT     H228063   3.737   5.396   6.471  0.3542 -1.2942 -0.5229
 4022WAT      O28064   1.218   4.564   1.082  0.0544  0.0334  1.0897
 4022WAT     H128065   1.310   4.585   1.067 -0.3970 -0.0490 -2.7172
 4022WAT     H228066   1.197   4.496   1.018 -3.5060  2.6924 -0.9365
 4023WAT      O28067   1.716   3.336   6.195  0.0670 -0.2384  0.8342
 4023WAT     H128068   1.784   3.363   6.134  3.2049  1.0816  4.4956
 4023WAT     H228069   1.666   3.416   6.212 -0.4672 -0.4795  0.4439
 4024WAT      O28070   4.802   2.007   7.288 -0.0396 -0.0722 -0.4336
 4024WAT     H128071   4.821   2.084   7.341  1.3870 -0.2121 -0.7030
 4024WAT     H228072   4.842   1.935   7.337  1.4120 -0.1921 -1.7163
 4025WAT      O28073   4.975   4.304   7.321 -0.0071 -0.3259  0.3364
 4025WAT     H128074   5.007   4.219   7.353  2.6301 -0.2489 -1.7035
 4025WAT     H228075   4.885   4.288   7.294 -0.0931 -2.0170  1.4741
 4026WAT      O28076   4.480   5.231   1.416 -0.2348  0.0989 -0.1000
 4026WAT     H128077   4.447   5.318   1.392  0.7423  0.0252 -1.8152
 4026WAT     H228078   4.560   5.248   1.466 -1.2153  0.2006  1.5095
 4027WAT      O28079   2.560   1.103   7.369 -0.0330  0.1075  0.2220
 4027WAT     H128080   2.494   1.048   7.411 -0.8884 -0.1778 -1.4044
 4027WAT     H228081   2.643   1.059   7.387 -0.6205 -1.2939 -0.3695
 4028WAT      O28082   2.010   5.686   6.286 -0.3132  0.2643  0.3156
 4028WAT     H128083   1.935   5.627   6.290 -0.8222  0.9658  1.3984
 4028WAT     H228084   1.973   5.774   6.291  0.5109  0.6621 -0.2466
 4029WAT      O28085   3.923   1.071   7.452  0.4489  0.1915 -0.2890
 4029WAT     H128086   3.988   1.045   7.517  0.0285 -1.2797 -0.4186
 4029WAT     H228087   3.949   1.026   7.372  0.0305  0.6649 -0.6987
 4030WAT      O28088   1.802   1.785   0.248  0.6500 -0.1759 -0.0257
 4030WAT     H128089   1.834   1.853   0.189  0.3449  1.1321  1.2573
 4030WAT     H228090   1.851   1.707   0.224  0.1881  0.1734 -2.3147
 4031WAT      O28091   1.889   3.064   7.190 -0.1592 -0.0934  0.1621
 4031WAT     H128092   1.819   3.094   7.131  0.0682 -1.1978 -0.6981
 4031WAT     H228093   1.880   3.121   7.267 -0.7329  1.1101 -0.7449
 4032WAT      O28094   1.719   0.872   1.497  0.1431  0.1270  0.1070
 4032WAT     H128095   1.660   0.928   1.547 -0.5011  0.2511 -0.7740
 4032WAT     H228096   1.781   0.838   1.562 -0.7434  0.1865  0.9998
 4033WAT      O28097   1.476   4.303   1.644 -0.2142 -0.4089 -0.7604
 4033WAT     H128098   1.560   4.348   1.650 -1.2504  1.4587  1.3824
 4033WAT     H228099   1.499   4.212   1.622  2.4712 -0.2248  0.8226
 4034WAT      O28100   5.296   5.655   0.210 -0.3318  0.4096  0.0676
 4034WAT     H128101   5.321   5.571   0.249  2.2138  1.9427  2.0817
 4034WAT     H228102   5.240   5.697   0.276  1.4073  1.7197  0.7971
 4035WAT      O28103   0.457   2.509   6.886 -0.0059 -0.0518  0.2354
 4035WAT     H128104   0.482   2.427   6.928  0.8130  0.0962  0.0646
 4035WAT     H228105   0.422   2.483   6.801  2.9194 -0.1168 -1.0506
 4036WAT      O28106   3.630   2.201   0.358 -0.1990  0.1561  0.0060
 4036WAT     H128107   3.686   2.195   0.280 -1.9721 -1.1207 -1.2270
 4036WAT     H228108   3.662   2.279   0.404  2.4964 -0.4219 -0.6751
 4037WAT      O28109   4.870   1.064   7.396  0.6150 -0.2042 -0.2389
 4037WAT     H128110   4.817   1.081   7.318 -0.8885 -0.0587  0.7876
 4037WAT     H228111   4.907   1.150   7.419  0.3099 -0.0683 -0.2568
 4038WAT      O28112   4.953   1.492   2.089  0.1575  0.0856  0.0933
 4038WAT     H128113   4.959   1.471   2.182 -0.4865  1.1286  0.3827
 4038WAT     H228114   5.038   1.465   2.053 -0.2900 -2.1184  0.5831
 4039WAT      O28115   1.077   0.699   1.402  0.1785 -0.0505 -0.4355
 4039WAT     H128116   1.110   0.685   1.490  0.9696  0.7510 -0.5900
 4039WAT     H228117   1.121   0.779   1.371 -0.5875  0.0699 -1.3043
 4040WAT      O28118   0.497   0.630   1.188  0.6150 -0.1645  0.0565
 4040WAT     H128119   0.434   0.703   1.187  0.2995 -0.3391  2.3107
 4040WAT     H228120   0.566   0.659   1.247  1.1867 -1.1588 -0.1125
 4041WAT      O28121   3.952   3.814   7.212 -0.3232 -0.2018  0.5088
 4041WAT     H128122   3.872   3.775   7.249 -0.7357 -0.7943 -0.9476
 4041WAT     H228123   4.022   3.753   7.235 -0.0946  0.7658  2.5753
 4042WAT      O28124   4.059   3.629   7.524 -0.1341 -0.0352  0.0955
 4042WAT     H128125   4.126   3.586   7.578 -0.6205 -1.5086 -0.4129
 4042WAT     H228126   4.109   3.667   7.451  0.3759  0.8038  0.8723
 4043WAT      O28127   1.610   4.954   7.755 -0.2412  0.1821 -0.1880
 4043WAT     H128128   1.535   4.949   7.696 -0.2720  0.0239 -0.1369
 4043WAT     H228129   1.656   5.034   7.729 -1.1634  1.0109  0.6697
 4044WAT      O28130   2.228   1.952   0.269  0.3978 -0.0589 -0.6000
 4044WAT     H128131   2.294   2.022   0.265  0.9094 -0.5110 -0.2962
 4044WAT     H228132   2.194   1.957   0.359  0.1973  0.0074 -0.6784
 4045WAT      O28133   5.811   4.102   7.608 -0.3741 -0.1467 -0.6473
 4045WAT     H128134   5.827   4.008   7.604 -0.6337 -0.2833  0.8699
 4045WAT     H228135   5.849   4.130   7.691  1.5543  1.5109 -1.9857
 4046WAT      O28136   4.792   2.295   1.117  0.9772  0.1944  0.2234
 4046WAT     H128137   4.737   2.367   1.147  0.6722 -0.4932  1.4050
 4046WAT     H228138   4.882   2.327   1.127  0.8572  0.2737  1.1817
 4047WAT      O28139   3.370   5.890   6.495 -0.0517  0.6748 -0.9163
 4047WAT     H128140   3.355   5.934   6.412 -1.1727  1.3871 -0.3526
 4047WAT     H228141   3.442   5.829   6.477 -0.8055  0.2307 -2.6049
 4048WAT      O28142   2.627   1.355   7.220  0.4779 -0.1965  0.0530
 4048WAT     H128143   2.566   1.421   7.254 -0.8195 -0.8142 -1.0216
 4048WAT     H228144   2.593   1.272   7.252 -0.6510 -0.7785 -2.4523
 4049WAT      O28145   1.717   1.934   6.951  0.2735  0.4103  0.0365
 4049WAT     H128146   1.728   1.848   6.910  2.6237  0.5970  0.1195
 4049WAT     H228147   1.732   1.997   6.880 -0.9914  0.7866  0.0735
 4050WAT      O28148   0.762   2.337   6.428  0.5902 -0.0217  0.5631
 4050WAT     H128149   0.750   2.339   6.523  0.6165 -0.0701  0.5676
 4050WAT     H228150   0.736   2.424   6.399 -0.3908 -0.3227  0.4975
 4051WAT      O28151   3.981   0.631   7.011 -0.4686  0.7090  0.5419
 4051WAT     H128152   3.896   0.590   7.025  0.5416 -1.8564 -0.2357
 4051WAT     H228153   3.967   0.691   6.938 -0.8173 -2.8642 -2.6171
 4052WAT      O28154   5.592   0.187   6.190 -0.5014  0.5971 -0.6230
 4052WAT     H128155   5.657   0.174   6.259 -0.7131 -0.3189 -0.5821
 4052WAT     H228156   5.611   0.117   6.126 -1.2091  0.5419 -0.7860
 4053WAT      O28157   0.401   3.677   2.202 -0.1491 -0.0334 -0.5203
 4053WAT     H128158   0.306   3.672   2.192 -0.2680  0.6616  0.1036
 4053WAT     H228159   0.432   3.719   2.122 -0.5015  0.8043 -0.2241
 4054WAT      O28160   1.962   5.844   0.715 -0.4805  0.3359 -0.3487
 4054WAT     H128161   1.989   5.891   0.636 -0.0514 -1.5113 -1.3397
 4054WAT     H228162   1.872   5.817   0.697 -0.8965  1.1615  0.4173
 4055WAT      O28163   2.801   4.766   6.984  0.0983 -0.3988 -0.1611
 4055WAT     H128164   2.857   4.688   6.976  1.0426 -0.0338  2.2116
 4055WAT     H228165   2.822   4.818   6.906  3.3293 -0.1667  0.7151
 4056WAT      O28166   6.173   0.889   0.392 -0.1014 -0.0751 -0.4400
 4056WAT     H128167   6.212   0.856   0.473 -0.5099  0.5594  0.0210
 4056WAT     H228168   6.220   0.842   0.323  0.1569 -0.7313  0.1586
 4057WAT      O28169   6.191   0.365   6.348  0.3194  0.1662  0.3453
 4057WAT     H128170   6.122   0.348   6.284  1.3051 -0.9795 -0.4463
 4057WAT     H228171   6.213   0.458   6.335 -0.4635  0.3130  0.0125
 4058WAT      O28172   0.669   2.810   0.787  0.2468  0.4569  0.3472
 4058WAT     H128173   0.602   2.746   0.763  1.5638 -1.0426  0.4086
 4058WAT     H228174   0.685   2.859   0.707  0.1128 -0.1959 -0.0924
 4059WAT      O28175   2.760   5.052   7.648  0.1582 -0.3379  0.3066
 4059WAT     H128176   2.808   5.125   7.685  0.0689  0.3306 -0.8416
 4059WAT     H228177   2.828   4.997   7.608  0.3785 -1.6464  2.3422
 4060WAT      O28178   1.691   3.495   6.460  0.1864  0.3176  0.0480
 4060WAT     H128179   1.634   3.493   6.383 -0.0806  1.3168  0.1985
 4060WAT     H228180   1.686   3.586   6.491  0.1809 -0.0924  1.3185
 4061WAT      O28181   0.214   3.704   7.667 -0.0170  0.3927 -0.6392
 4061WAT     H128182   0.280   3.654   7.619 -1.1781 -0.0788 -1.7806
 4061WAT     H228183   0.142   3.714   7.606 -1.9488 -1.0220  1.2509
 4062WAT      O28184   0.079   5.945   7.337 -0.3848  0.8115 -0.3127
 4062WAT     H128185   0.079   5.948   7.241  0.0221  0.3158 -0.3314
 4062WAT     H228186   0.146   5.880   7.359 -1.4172 -0.0946  0.2599
 4063WAT      O28187   1.689   0.113   2.443 -0.7693  0.5837 -0.0101
 4063WAT     H128188   1.631   0.099   2.368 -1.5253 -1.0944  0.8235
 4063WAT     H228189   1.777   0.100   2.408 -1.1126 -0.2367 -0.6115
 4064WAT      O28190   3.733   1.921   0.154  0.2905  0.1057  0.0271
 4064WAT     H128191   3.671   1.920   0.227  0.6475  0.3839  0.3381
 4064WAT     H228192   3.808   1.872   0.186  1.0122  1.3878  0.3541
 4065WAT      O28193   5.659   0.759   6.217  0.2066  0.2312  0.0754
 4065WAT     H128194   5.732   0.821   6.219  0.7985 -0.4497 -0.0806
 4065WAT     H228195   5.689   0.688   6.160 -0.8630  0.2845 -0.5965
 4066WAT      O28196   4.115   3.027   2.448  0.0606 -0.1282 -0.2054
 4066WAT     H128197   4.142   3.117   2.430 -0.5317  0.1126  0.0763
 4066WAT     H228198   4.178   2.996   2.512 -0.1522  0.3316  0.2359
 4067WAT      O28199   1.990   0.850   1.381  0.6263 -0.1156  0.2282
 4067WAT     H128200   1.998   0.774   1.438  0.7622  1.0275  1.7822
 4067WAT     H228201   1.899   0.878   1.392  0.7087  0.2315  0.0277
 4068WAT      O28202   3.952   4.851   7.335  0.7462  0.1007  0.1099
 4068WAT     H128203   3.930   4.932   7.380 -0.3188 -0.1047 -0.0141
 4068WAT     H228204   3.929   4.782   7.398  0.4996 -0.1396 -0.2379
 4069WAT      O28205   2.605   0.546   7.749 -0.2421 -0.8504  0.5186
 4069WAT     H128206   2.700   0.552   7.758 -0.4756  0.9175  2.3639
 4069WAT     H228207   2.573   0.520   7.836 -1.5099 -0.3931  0.2200
 4070WAT      O28208   3.336   3.514   7.671  0.1658 -0.2750  0.4043
 4070WAT     H128209   3.274   3.475   7.610 -0.3743 -0.9262  1.3541
 4070WAT     H228210   3.376   3.440   7.715  1.3242  0.1564  0.1079
 4071WAT      O28211   1.330   1.315   0.301 -0.2659 -0.4738  0.0663
 4071WAT     H128212   1.260   1.270   0.349  0.1283 -1.1704  0.0009
 4071WAT     H228213   1.284   1.382   0.250 -0.7828 -0.2946  0.7425
 4072WAT      O28214   3.215   0.033   2.037 -0.2552 -0.3830 -0.0396
 4072WAT     H128215   3.188   0.032   2.129 -0.8632 -0.7349 -0.2183
 4072WAT     H228216   3.271   0.111   2.030 -1.5493  0.6071  0.2510
 4073WAT      O28217   4.753   1.129   0.333 -0.4982  0.6623 -0.2143
 4073WAT     H128218   4.686   1.120   0.265  0.6448 -2.3149 -1.1224
 4073WAT     H228219   4.788   1.040   0.343  2.3329  1.8326  1.2521
 4074WAT      O28220   1.440   4.885   0.648 -0.5150 -0.0786 -0.3025
 4074WAT     H128221   1.354   4.844   0.658 -0.5841 -0.3656 -1.8323
 4074WAT     H228222   1.494   4.844   0.716 -1.6751  0.4439  0.9875
 4075WAT      O28223   5.128   2.220   7.293  0.0577 -0.2879  0.0361
 4075WAT     H128224   5.183   2.220   7.215 -0.4131 -0.8720 -0.2962
 4075WAT     H228225   5.188   2.197   7.364  0.6350  0.9143 -0.0338
 4076WAT      O28226   4.143   2.462   2.147  0.2388  0.0727  0.0443
 4076WAT     H128227   4.138   2.387   2.206  3.5851 -0.1437  0.2154
 4076WAT     H228228   4.120   2.537   2.201 -0.3242 -0.5032  0.6226
 4077WAT      O28229   4.778   4.098   0.100  0.0217 -0.2599 -0.4653
 4077WAT     H128230   4.728   4.128   0.024  0.3153  2.4446  0.3082
 4077WAT     H228231   4.779   4.173   0.159  1.1337 -1.7664  1.5486
 4078WAT      O28232   1.634   2.222   1.537 -0.0057  0.1521  0.2055
 4078WAT     H128233   1.642   2.183   1.624  0.3554 -2.0878 -0.7608
 4078WAT     H228234   1.616   2.148   1.479  2.3109  1.1895 -2.0299
 4079WAT      O28235   1.473   2.109   7.528 -0.5118 -0.2296  0.0111
 4079WAT     H128236   1.485   2.025   7.483  0.0336  0.5734 -1.4508
 4079WAT     H228237   1.399   2.149   7.482 -0.5571  0.2200  0.4811
 4080WAT      O28238   3.819   1.236   7.662  0.2744  0.1615  0.3352
 4080WAT     H128239   3.838   1.226   7.569  0.9606  0.4337  0.4449
 4080WAT     H228240   3.904   1.230   7.705 -0.1291 -0.9698  1.0382
 4081WAT      O28241   3.938   1.319   7.277  0.1983  0.7655 -0.0366
 4081WAT     H128242   3.879   1.371   7.332 -1.7843 -1.3009 -0.0382
 4081WAT     H228243   3.964   1.245   7.332  2.3012  1.2721 -0.2818
 4082WAT      O28244   2.666   4.804   1.807  0.1449 -0.9730 -0.7554
 4082WAT     H128245   2.600   4.751   1.762 -1.2982  0.1443 -0.0430
 4082WAT     H228246   2.691   4.752   1.883 -0.1796 -1.2612 -0.8444
 4083WAT      O28247   5.575   1.759   0.603  0.0591  0.5403  1.2470
 4083WAT     H128248   5.503   1.767   0.541  1.1155  1.0473  0.0355
 4083WAT     H228249   5.570   1.668   0.634  0.2404 -0.1204 -0.5443
 4084WAT      O28250   5.235   5.998   7.184 -0.4328 -0.3105  0.1891
 4084WAT     H128251   5.282   5.953   7.114 -1.3348 -1.9976  0.6008
 4084WAT     H228252   5.302   6.019   7.249 -0.0775 -2.0453  0.4464
 4085WAT      O28253   5.088   1.187   5.534  0.4291  0.0590 -0.1497
 4085WAT     H128254   4.996   1.169   5.554  0.2834  1.7878  0.8827
 4085WAT     H228255   5.121   1.105   5.498 -1.3825 -0.7440 -0.0820
 4086WAT      O28256   2.946   1.697   1.152 -0.3172 -0.0699  0.1225
 4086WAT     H128257   2.891   1.634   1.106 -0.5545 -0.1791  0.5463
 4086WAT     H228258   3.012   1.644   1.196 -1.6166 -0.2420  2.0222
 4087WAT      O28259   5.744   2.731   2.089  0.0662  0.0965 -0.2879
 4087WAT     H128260   5.746   2.648   2.041 -1.5912  0.9010 -1.8867
 4087WAT     H228261   5.828   2.734   2.135 -0.8966 -3.7024  2.1414
 4088WAT      O28262   3.977   2.450   6.598 -0.0324  0.2884  0.3710
 4088WAT     H128263   4.013   2.364   6.616 -0.1797  0.3108  0.7741
 4088WAT     H228264   3.888   2.433   6.566  0.6138  0.1789 -1.4874
 4089WAT      O28265   4.351   1.645   7.083  0.8548 -0.0533  0.0492
 4089WAT     H128266   4.413   1.635   7.156  1.0277 -0.2442 -0.1212
 4089WAT     H228267   4.368   1.569   7.027  0.0373 -0.4423  0.3130
 4090WAT      O28268   3.033   5.142   1.392 -0.6798 -0.4581 -0.0139
 4090WAT     H128269   2.984   5.093   1.326 -1.0646 -0.4217  0.2466
 4090WAT     H228270   2.967   5.175   1.453 -0.2605 -1.1445  0.8278
 4091WAT      O28271   6.049   3.655   6.943 -0.1497  0.0617  0.3333
 4091WAT     H128272   5.987   3.592   6.979 -1.8932  0.9774 -0.9052
 4091WAT     H228273   6.034   3.735   6.994  0.9270 -0.0441  0.8466
 4092WAT      O28274   0.849   5.092   7.250 -0.0828 -0.1794 -0.3638
 4092WAT     H128275   0.814   5.142   7.176 -1.6829 -0.5450  0.1032
 4092WAT     H228276   0.854   5.156   7.321  0.4561 -0.0730 -0.4926
 4093WAT      O28277   0.716   6.209   0.934 -0.0035 -0.0151 -0.6918
 4093WAT     H128278   0.761   6.226   0.851 -1.4268  1.1739 -1.2451
 4093WAT     H228279   0.784   6.219   1.000  0.5022  2.1866 -1.4713
 4094WAT      O28280   3.011   0.225   7.097  0.4089 -0.3407  0.0452
 4094WAT     H128281   3.037   0.136   7.120  0.1389 -0.0482  1.5919
 4094WAT     H228282   3.091   0.277   7.108  0.6628 -0.4305 -1.2216
 4095WAT      O28283   2.316   1.698   1.027 -0.0374  0.3490 -0.2003
 4095WAT     H128284   2.240   1.641   1.018  0.1679  0.1227 -0.4993
 4095WAT     H228285   2.324   1.740   0.941  1.1578 -0.8568 -0.7117
 4096WAT      O28286   5.735   2.796   6.519 -0.2019 -0.1727  0.0027
 4096WAT     H128287   5.786   2.873   6.493 -0.2306 -0.2587 -0.3178
 4096WAT     H228288   5.800   2.728   6.533 -0.1735 -0.0811  0.3212
 4097WAT      O28289   4.785   0.305   6.996 -0.1369  0.0138  0.6049
 4097WAT     H128290   4.810   0.267   6.912 -1.4496  0.0346  0.1897
 4097WAT     H228291   4.729   0.379   6.973 -0.2593  0.2102  1.4976
 4098WAT      O28292   5.956   3.810   6.105 -0.7351  1.0291 -0.4553
 4098WAT     H128293   5.954   3.732   6.049  1.4457  1.0344 -0.6162
 4098WAT     H228294   5.958   3.883   6.043 -1.9363  1.2032 -0.3105
 4099WAT      O28295   2.367   4.063   1.334  0.2893 -0.2303 -0.3085
 4099WAT     H128296   2.287   4.078   1.384 -0.4940  1.7215 -1.9717
 4099WAT     H228297   2.436   4.105   1.385 -0.0854 -0.2295  0.2048
 4100WAT      O28298   4.120   5.564   7.417 -0.5025 -0.4558  0.6529
 4100WAT     H128299   4.041   5.591   7.465 -0.0453 -0.2446  1.3021
 4100WAT     H228300   4.188   5.561   7.484  0.1764 -0.0434 -0.0133
 4101WAT      O28301   1.178   0.945   0.013 -0.1282  0.2156  0.7350
 4101WAT     H128302   1.112   1.010   0.036 -0.3611 -0.2396  1.3687
 4101WAT     H228303   1.261   0.989   0.030 -0.2399  0.9107 -0.3800
 4102WAT      O28304   0.022   2.832   5.887 -0.0354  0.0933 -0.1476
 4102WAT     H128305   0.033   2.913   5.838 -1.0014  0.5712  0.3977
 4102WAT     H228306   0.092   2.775   5.855  0.9450  1.2939 -0.1965
 4103WAT      O28307   0.368   2.788   7.183  0.1264 -0.2428  0.2630
 4103WAT     H128308   0.316   2.754   7.110  0.9173 -0.1956 -0.3330
 4103WAT     H228309   0.422   2.857   7.145 -0.7567  1.0568  1.2726
 4104WAT      O28310   0.305   1.269   6.400  0.5523  0.4347 -0.0373
 4104WAT     H128311   0.366   1.222   6.343 -0.4010  0.5883 -1.2356
 4104WAT     H228312   0.311   1.361   6.372 -0.7267  0.3479 -0.6951
 4105WAT      O28313   3.287   1.894   6.902  0.4988  0.3715  0.5682
 4105WAT     H128314   3.242   1.813   6.926  0.9871 -0.6295 -1.7032
 4105WAT     H228315   3.216   1.954   6.878  0.2363 -0.1575  0.0119
 4106WAT      O28316   0.939   0.969   0.224 -0.1947 -0.4297  0.3428
 4106WAT     H128317   0.944   0.943   0.132 -0.1102 -1.0994  0.5314
 4106WAT     H228318   0.851   0.944   0.251 -0.6200  0.8070  0.1422
 4107WAT      O28319   0.815   3.563   7.398 -0.3000  0.1918 -0.2652
 4107WAT     H128320   0.901   3.548   7.435 -0.5404 -4.9064 -0.9872
 4107WAT     H228321   0.754   3.544   7.470 -1.0604  3.7874  0.2601
 4108WAT      O28322   1.249   6.204   1.179 -0.2601  0.1069  0.5093
 4108WAT     H128323   1.328   6.195   1.232  0.6699  2.2786 -0.4154
 4108WAT     H228324   1.187   6.142   1.219  1.2883 -0.3498  2.3682
 4109WAT      O28325   1.831   4.350   0.416  0.0738 -0.3467 -0.2803
 4109WAT     H128326   1.770   4.279   0.395 -0.2179 -0.5098  1.0169
 4109WAT     H228327   1.862   4.329   0.504  0.4292  0.8402 -0.1050
 4110WAT      O28328   0.336   1.595   7.731  0.8011  0.3648 -0.1957
 4110WAT     H128329   0.376   1.538   7.665  0.0367 -1.2250  0.6633
 4110WAT     H228330   0.263   1.545   7.766  0.1957  1.8176  0.7446
 4111WAT      O28331   1.332   4.436   6.335  0.5452 -0.0006  0.4292
 4111WAT     H128332   1.323   4.510   6.394 -2.7087 -0.3966  0.5773
 4111WAT     H228333   1.323   4.474   6.247 -0.8966 -0.1372  0.4959
 4112WAT      O28334   2.430   2.383   6.024 -0.1084 -0.7981 -0.2701
 4112WAT     H128335   2.469   2.469   6.006 -0.8910 -0.1606  0.9457
 4112WAT     H228336   2.409   2.348   5.937  0.4667  0.1183 -0.7964
 4113WAT      O28337   5.612   2.341   7.403 -0.0345  0.2128  0.4656
 4113WAT     H128338   5.622   2.436   7.397  0.6287  0.1777  0.8860
 4113WAT     H228339   5.701   2.308   7.420 -0.1298 -0.5451 -0.4077
 4114WAT      O28340   2.972   2.547   0.437 -0.0504  0.0600  0.1870
 4114WAT     H128341   3.009   2.459   0.423 -1.7055 -0.5116 -0.8175
 4114WAT     H228342   2.971   2.587   0.350  0.8267  1.1782  0.6577
 4115WAT      O28343   2.340   2.495   0.884  0.7328  0.2997  0.2987
 4115WAT     H128344   2.387   2.431   0.939 -0.4243 -1.4606 -0.6732
 4115WAT     H228345   2.400   2.512   0.811  1.0814  0.4308  0.6086
 4116WAT      O28346   5.270   2.804   0.083  0.0432  0.8276  0.7542
 4116WAT     H128347   5.328   2.743   0.130 -1.1181  0.1837  1.3884
 4116WAT     H228348   5.261   2.765  -0.004  0.1543  0.6612  0.8168
 4117WAT      O28349   0.515   4.079   1.404  0.2431 -0.5185  0.2558
 4117WAT     H128350   0.451   4.080   1.475 -1.2017  0.1193 -0.9929
 4117WAT     H228351   0.593   4.040   1.443 -0.6988 -0.7824  2.0047
 4118WAT      O28352   2.453   1.283   1.106 -0.0432 -0.5931 -0.0713
 4118WAT     H128353   2.525   1.226   1.134 -1.1957 -2.6928 -1.1727
 4118WAT     H228354   2.484   1.320   1.023  0.2791 -0.3825  0.1342
 4119WAT      O28355   3.040   0.033   0.885  0.2422  0.6449  0.2522
 4119WAT     H128356   3.072  -0.056   0.899 -0.0390  0.7500  1.6590
 4119WAT     H228357   2.995   0.029   0.801  2.6574  0.1605 -1.1201
 4120WAT      O28358   4.624   1.148   7.255 -0.5318  0.1673 -0.2246
 4120WAT     H128359   4.580   1.194   7.184  0.7992 -1.2496 -2.0493
 4120WAT     H228360   4.613   1.055   7.234  0.3164 -0.2773  1.1634
 4121WAT      O28361   0.419   0.227   5.377 -0.0215 -0.4669 -0.3168
 4121WAT     H128362   0.499   0.239   5.428 -0.3119 -0.3859  0.1243
 4121WAT     H228363   0.358   0.292   5.411 -0.7824 -1.5135  0.3868
 4122WAT      O28364   5.267   1.911   6.028 -0.6915 -0.2043 -0.6032
 4122WAT     H128365   5.184   1.869   6.005 -0.7078 -0.3838 -0.2180
 4122WAT     H228366   5.323   1.839   6.058 -0.2430 -0.1500 -1.2906
 4123WAT      O28367   6.105   6.228   6.291  0.6778 -0.5949 -0.6335
 4123WAT     H128368   6.017   6.191   6.281  1.1064 -1.0915 -3.1188
 4123WAT     H228369   6.093   6.321   6.274  0.2999 -0.2265  1.3930
 4124WAT      O28370   2.990   2.393   7.168  0.5050 -0.3875  0.2091
 4124WAT     H128371   3.024   2.315   7.212  0.0571  0.7757  2.8572
 4124WAT     H228372   2.895   2.385   7.174  0.3983 -0.5286 -1.2807
 4125WAT      O28373   0.321   2.478   6.641  0.4050  0.4036 -0.3859
 4125WAT     H128374   0.239   2.516   6.672  1.0941  1.0096  0.7514
 4125WAT     H228375   0.298   2.389   6.614 -0.4818  0.3091  0.6330
 4126WAT      O28376   0.099   3.935   0.295 -0.0062  0.9504  0.2106
 4126WAT     H128377   0.092   3.875   0.369  0.1701  0.3724 -0.2356
 4126WAT     H228378   0.095   3.879   0.218  1.6552  1.3402 -0.2025
 4127WAT      O28379   5.261   4.176   1.433 -0.3765  0.1846  0.5117
 4127WAT     H128380   5.289   4.230   1.507 -0.4052 -0.2154  0.8169
 4127WAT     H228381   5.334   4.182   1.371  0.0228 -0.1530  0.9344
 4128WAT      O28382   3.635   2.120   2.130  0.5161 -0.0680  0.3749
 4128WAT     H128383   3.641   2.207   2.091  0.6281  0.4591  1.5080
 4128WAT     H228384   3.542   2.098   2.127  0.5533 -0.1563 -0.3976
 4129WAT      O28385   4.227   2.943   1.710  0.0936  0.0719 -0.4515
 4129WAT     H128386   4.251   2.881   1.641 -1.6460 -0.6132 -0.5019
 4129WAT     H228387   4.170   2.892   1.768 -0.8736  1.4426 -0.1624
 4130WAT      O28388   1.107   4.216   0.384 -0.3119  0.4796  0.1524
 4130WAT     H128389   1.201   4.231   0.387 -0.0189 -1.1450  0.0521
 4130WAT     H228390   1.092   4.175   0.299 -1.3304  1.9868 -0.4232
 4131WAT      O28391   4.410   1.914   0.467  0.0586 -0.2409 -0.1661
 4131WAT     H128392   4.332   1.859   0.463  0.4928 -1.0996  1.8885
 4131WAT     H228393   4.395   1.972   0.542  0.9559  0.2936 -0.3845
 4132WAT      O28394   3.611   5.674   2.281  0.0646  0.6773 -0.5485
 4132WAT     H128395   3.604   5.586   2.319  1.2514  1.0457  0.6191
 4132WAT     H228396   3.705   5.687   2.270 -0.0847  1.9315 -0.3790
 4133WAT      O28397   4.208   3.754   5.115 -0.3295  0.4706 -0.1539
 4133WAT     H128398   4.268   3.682   5.135  0.0726  0.2658 -1.9239
 4133WAT     H228399   4.235   3.825   5.173  0.0991 -0.3806  0.7133
 4134WAT      O28400   3.331   5.302   1.246  0.3548  0.1578  0.5275
 4134WAT     H128401   3.240   5.281   1.268  0.5497 -0.3173  0.8877
 4134WAT     H228402   3.348   5.383   1.294  0.1667  0.1694  0.5760
 4135WAT      O28403   2.288   2.545   6.813 -0.2703 -0.7119  0.0785
 4135WAT     H128404   2.349   2.480   6.846  0.9709  0.7034  0.7009
 4135WAT     H228405   2.343   2.613   6.774 -1.3669  0.7740  0.9640
 4136WAT      O28406   2.839   5.041   1.856 -0.3919  0.3873 -0.2450
 4136WAT     H128407   2.853   5.056   1.949  1.6771 -0.4663 -0.3816
 4136WAT     H228408   2.773   4.972   1.853 -0.4350  0.3842  0.5724
 4137WAT      O28409   0.026   4.375   0.110  0.1296 -0.0821  0.1991
 4137WAT     H128410  -0.055   4.366   0.059  0.2958 -0.2482 -0.0392
 4137WAT     H228411   0.007   4.331   0.193  0.3789 -1.2003 -0.3222
 4138WAT      O28412   3.899   4.388   6.909 -0.2706 -0.3774 -0.3282
 4138WAT     H128413   3.894   4.445   6.832  1.3902 -1.2869 -1.1557
 4138WAT     H228414   3.992   4.376   6.925 -0.5528 -2.9140 -0.2501
 4139WAT      O28415   0.195   3.446   7.383  0.5357  0.0653  0.3563
 4139WAT     H128416   0.215   3.416   7.294  0.9085  0.4592  0.3032
 4139WAT     H228417   0.280   3.455   7.425  0.5008  1.6676  0.1588
 4140WAT      O28418   5.451   5.035   7.051  0.7314  0.1301 -0.1033
 4140WAT     H128419   5.514   5.074   7.112  0.6404  1.4081 -0.7848
 4140WAT     H228420   5.418   5.109   7.001 -1.2324 -0.5259  0.1428
 4141WAT      O28421   3.406   1.399   0.516 -0.1782  0.4173 -0.1053
 4141WAT     H128422   3.495   1.433   0.522 -0.4258  0.9355  0.9088
 4141WAT     H228423   3.353   1.461   0.566 -1.1656  0.2885 -0.9595
 4142WAT      O28424   0.994   3.625   0.616  0.0880 -0.2511  0.1168
 4142WAT     H128425   1.051   3.695   0.648  1.1815 -0.9521 -0.2283
 4142WAT     H228426   0.907   3.648   0.649  0.2194  1.7570 -0.7518
 4143WAT      O28427   2.380   2.296   0.162 -0.0069 -0.4789 -0.1358
 4143WAT     H128428   2.290   2.285   0.131  0.8148 -2.2494 -2.1218
 4143WAT     H228429   2.386   2.237   0.237 -0.5343 -0.2722  0.0726
 4144WAT      O28430   0.259   0.486   7.580 -0.1033  0.2818  0.0506
 4144WAT     H128431   0.328   0.427   7.552 -0.9453 -0.5195 -0.3757
 4144WAT     H228432   0.205   0.498   7.503 -0.9163  0.2315  0.6020
 4145WAT      O28433   5.107   5.389   7.801  0.0623 -0.2838  0.0174
 4145WAT     H128434   5.098   5.360   7.892 -1.5628  0.0195 -0.0066
 4145WAT     H228435   5.028   5.357   7.758  1.1717 -1.0858 -1.5016
 4146WAT      O28436   6.134   4.640   1.684  0.3649 -0.1269  0.6332
 4146WAT     H128437   6.095   4.554   1.673  0.8067 -0.3937  1.1365
 4146WAT     H228438   6.113   4.665   1.774  2.2701 -0.7621  1.3099
 4147WAT      O28439   2.625   6.059   6.616 -0.4828  0.2885 -0.3966
 4147WAT     H128440   2.551   6.053   6.676 -1.2672 -0.5768 -1.4243
 4147WAT     H228441   2.668   5.974   6.622  0.7859  0.9557  0.5938
 4148WAT      O28442   0.060   1.670   6.107  0.2461  0.3341 -0.2193
 4148WAT     H128443  -0.022   1.635   6.142  0.9410 -1.4801 -0.3057
 4148WAT     H228444   0.035   1.711   6.024 -0.7194  0.6790  0.2319
 4149WAT      O28445   1.332   5.372   2.139  0.4476  0.0881 -0.3284
 4149WAT     H128446   1.338   5.432   2.065 -0.6837  1.0819  0.3437
 4149WAT     H228447   1.266   5.411   2.196 -0.4879 -1.9231  0.0403
 4150WAT      O28448   3.763   5.871   7.330 -0.1010  0.2851 -0.5394
 4150WAT     H128449   3.784   5.921   7.251  0.2079  1.4910  0.2824
 4150WAT     H228450   3.693   5.812   7.302 -1.5752  2.2263 -1.2294
 4151WAT      O28451   0.164   3.004   1.414  0.1039 -0.2282  0.7653
 4151WAT     H128452   0.193   2.927   1.365 -1.9246 -0.3823 -0.2897
 4151WAT     H228453   0.113   3.055   1.351  0.0595  1.1724  1.8860
 4152WAT      O28454   5.329   5.860   0.540 -0.1057 -0.3428  0.0608
 4152WAT     H128455   5.287   5.918   0.603 -0.2519  0.1804 -0.5101
 4152WAT     H228456   5.292   5.774   0.557 -0.2531 -0.1752  0.5889
 4153WAT      O28457   2.793   5.835   1.616  0.5133  0.3302 -0.2607
 4153WAT     H128458   2.883   5.811   1.641  0.2423 -0.1569  0.2569
 4153WAT     H228459   2.791   5.821   1.521  0.8245 -0.1932 -0.1964
 4154WAT      O28460   3.783   1.606   6.395 -0.1506  0.0420 -0.5591
 4154WAT     H128461   3.716   1.644   6.339 -1.5286 -0.5738  0.6134
 4154WAT     H228462   3.738   1.588   6.478  1.6411  0.2850  0.5257
 4155WAT      O28463   1.982   3.804   6.629  0.0539 -0.4962  0.0733
 4155WAT     H128464   1.956   3.888   6.665 -1.6695 -0.9592 -0.0193
 4155WAT     H228465   1.928   3.740   6.676 -2.5699 -1.1052 -3.3767
 4156WAT      O28466   3.850   4.035   5.926 -0.0900 -0.0623  0.5789
 4156WAT     H128467   3.802   4.088   5.863 -0.3988 -1.8904 -0.7919
 4156WAT     H228468   3.853   3.948   5.887  1.6763 -0.7256  2.0683
 4157WAT      O28469   1.727   4.701   1.718 -0.2941 -0.3411  1.2342
 4157WAT     H128470   1.750   4.696   1.811  1.0118  0.5483  0.9795
 4157WAT     H228471   1.711   4.793   1.701 -0.1789 -0.4462  0.5010
 4158WAT      O28472   3.225   0.667   5.488 -0.3350  0.0578  0.4106
 4158WAT     H128473   3.180   0.703   5.564  0.9404  2.5229  0.1202
 4158WAT     H228474   3.318   0.686   5.504  0.0464 -0.0687 -1.3817
 4159WAT      O28475   1.875   2.597   7.442  0.2087 -0.4628 -0.6311
 4159WAT     H128476   1.813   2.587   7.514  1.7194  2.8000  1.3197
 4159WAT     H228477   1.938   2.526   7.455 -0.2679 -0.7038  0.4698
 4160WAT      O28478   1.922   5.384   7.465 -0.3370  0.3686  0.1778
 4160WAT     H128479   1.921   5.444   7.540  1.4357  0.3117  0.2759
 4160WAT     H228480   1.854   5.418   7.406 -1.1023  0.9634  1.3630
 4161WAT      O28481   5.250   3.010   0.849 -0.1109  0.0020  0.5196
 4161WAT     H128482   5.255   3.097   0.810  1.9951 -0.6714 -0.8771
 4161WAT     H228483   5.312   3.012   0.921 -0.2832 -0.2529  0.6768
 4162WAT      O28484   0.177   2.817   1.811  0.2082  0.4772  0.2329
 4162WAT     H128485   0.225   2.856   1.738 -1.5641  2.8050  0.1984
 4162WAT     H228486   0.218   2.855   1.889  1.2850 -1.0386  0.4382
 4163WAT      O28487   1.766   0.367   7.591 -0.4219 -0.3705  0.6002
 4163WAT     H128488   1.719   0.432   7.539  0.5134 -0.4133 -0.3391
 4163WAT     H228489   1.854   0.403   7.600 -0.3589 -0.7151  1.5468
 4164WAT      O28490   5.594   2.348   2.197  0.1117  0.4482  0.7560
 4164WAT     H128491   5.639   2.387   2.122  0.8546 -0.7866  0.5282
 4164WAT     H228492   5.503   2.339   2.169 -0.5496  3.6363  1.4769
 4165WAT      O28493   3.588   4.537   0.977  0.1910 -0.1530  0.6359
 4165WAT     H128494   3.550   4.495   1.055 -0.1452  0.0897  0.6031
 4165WAT     H228495   3.522   4.524   0.909 -0.1984  0.9830  0.7831
 4166WAT      O28496   1.474   2.842   7.120  0.9672 -0.2962  0.1026
 4166WAT     H128497   1.427   2.850   7.037  0.9462  1.4002  0.2334
 4166WAT     H228498   1.535   2.770   7.107 -0.4467 -1.3858 -0.6670
 4167WAT      O28499   0.229   0.923   7.033 -0.2877 -0.0713 -0.8286
 4167WAT     H128500   0.256   0.958   6.948 -0.3851 -0.1701 -0.8990
 4167WAT     H228501   0.265   0.986   7.096  2.2324 -1.4296 -0.7545
 4168WAT      O28502   0.740   0.668   1.289  0.2803  0.2283  0.0822
 4168WAT     H128503   0.809   0.660   1.223  0.0876 -0.1976 -0.0714
 4168WAT     H228504   0.772   0.737   1.349  1.0112 -0.2140  0.2200
 4169WAT      O28505   2.446   5.972   6.955 -0.0993  0.3842  0.1463
 4169WAT     H128506   2.528   6.014   6.981  0.1916 -1.5786  2.9748
 4169WAT     H228507   2.407   6.032   6.891  2.5299  2.4129  0.2634
 4170WAT      O28508   4.836   4.179   7.540  0.4130  0.2048  0.0432
 4170WAT     H128509   4.870   4.237   7.608 -1.1252 -1.2375  2.1664
 4170WAT     H228510   4.906   4.116   7.524  1.5833  1.7896 -1.3154
 4171WAT      O28511   5.179   1.924   5.726  0.3056 -0.4349 -0.3301
 4171WAT     H128512   5.126   1.845   5.732  0.3996 -0.5252 -0.6756
 4171WAT     H228513   5.128   1.990   5.772  0.0484 -0.6049 -0.3676
 4172WAT      O28514   3.668   1.411   7.886  0.1278 -0.0880  0.3208
 4172WAT     H128515   3.681   1.403   7.792  1.2448 -1.4837  0.5657
 4172WAT     H228516   3.682   1.504   7.905  0.6021  0.0735 -0.7703
 4173WAT      O28517   4.586   4.555   0.289  0.3272  0.0274  0.6407
 4173WAT     H128518   4.511   4.515   0.245  0.7876  0.6179 -0.7205
 4173WAT     H228519   4.645   4.580   0.218  2.2456 -1.2307  1.7270
 4174WAT      O28520   4.623   5.142   0.633  0.0309 -1.0593  0.1466
 4174WAT     H128521   4.633   5.077   0.702 -0.0594 -1.2721 -0.0405
 4174WAT     H228522   4.681   5.112   0.562  1.0343 -0.2089  0.5852
 4175WAT      O28523   1.227   1.400   7.612  0.0500 -0.0352 -0.0441
 4175WAT     H128524   1.245   1.335   7.544  1.1244  0.5734 -0.3639
 4175WAT     H228525   1.220   1.349   7.693  2.0493 -0.4677 -0.1049
 4176WAT      O28526   3.309   4.090   6.622 -0.6761 -0.3281 -0.4257
 4176WAT     H128527   3.350   4.029   6.683 -2.3261 -1.8312 -0.7281
 4176WAT     H228528   3.262   4.152   6.678 -0.8222 -0.6951 -0.1360
 4177WAT      O28529   4.000   0.989   7.197 -0.3086 -0.3947 -0.6685
 4177WAT     H128530   4.081   0.988   7.145 -0.3432 -0.0019 -0.7331
 4177WAT     H228531   3.936   1.032   7.140 -0.1648  0.6907 -0.0342
 4178WAT      O28532   4.541   5.135   7.720  0.1350 -0.4789 -0.3675
 4178WAT     H128533   4.538   5.201   7.790  1.0774 -0.7722 -0.0349
 4178WAT     H228534   4.608   5.073   7.749  0.4168 -0.6984 -1.4543
 4179WAT      O28535   0.598   3.051   2.093  0.0728  0.6042 -0.0584
 4179WAT     H128536   0.515   3.081   2.131 -0.4079  0.4543 -0.9707
 4179WAT     H228537   0.578   2.965   2.056  0.4537  0.8674 -0.8993
 4180WAT      O28538   1.286   1.646   0.810  0.2633  0.8605 -0.3494
 4180WAT     H128539   1.233   1.618   0.736  1.1178  0.5869 -0.8720
 4180WAT     H228540   1.369   1.599   0.801 -0.1375 -0.3524  1.6331
 4181WAT      O28541   3.630   5.445   0.561 -0.0128  0.5507 -0.0881
 4181WAT     H128542   3.657   5.536   0.554  2.2995 -0.0381  0.3701
 4181WAT     H228543   3.645   5.408   0.474 -2.4397  0.9068 -0.7332
 4182WAT      O28544   1.553   4.849   0.904 -0.0817 -0.4334  0.2366
 4182WAT     H128545   1.527   4.757   0.901  1.1413 -0.9564  2.9986
 4182WAT     H228546   1.648   4.847   0.899 -0.0827  0.8415 -1.1050
 4183WAT      O28547   5.308   1.955   1.069 -0.1834  0.5491  0.0955
 4183WAT     H128548   5.379   1.909   1.024 -0.5176 -0.1320  0.2444
 4183WAT     H228549   5.232   1.897   1.060 -0.9653  1.6874 -0.8338
 4184WAT      O28550   2.674   2.556   6.059 -0.5040 -0.1113 -0.4735
 4184WAT     H128551   2.763   2.593   6.053 -1.1393  1.8335  1.1174
 4184WAT     H228552   2.640   2.562   5.970  1.1179 -1.3988 -1.2366
 4185WAT      O28553   2.246   0.602   0.670 -0.3706  0.3405 -0.1516
 4185WAT     H128554   2.211   0.685   0.702 -1.6782  0.1366 -0.9738
 4185WAT     H228555   2.228   0.602   0.576 -1.7170 -1.4626  0.0467
 4186WAT      O28556   5.451   0.579   0.969 -0.0092 -0.5408  0.6058
 4186WAT     H128557   5.484   0.578   0.879 -0.1391 -0.2397  0.5566
 4186WAT     H228558   5.516   0.528   1.018 -0.3800 -1.4542  0.1844
 4187WAT      O28559   1.288   0.480   0.272  0.7372  0.2404 -0.6199
 4187WAT     H128560   1.267   0.386   0.276  0.7139  0.2258 -1.0593
 4187WAT     H228561   1.219   0.522   0.323  0.2138  0.1014 -1.1997
 4188WAT      O28562   1.756   1.231   1.205 -0.5517  0.0016  0.0771
 4188WAT     H128563   1.778   1.168   1.274  0.5454 -0.7012 -0.8889
 4188WAT     H228564   1.699   1.295   1.249 -0.6352 -0.9320  1.4001
 4189WAT      O28565   2.637   6.173   6.950  0.1608 -0.3722 -0.6651
 4189WAT     H128566   2.692   6.208   7.020  0.4534 -0.9976 -0.5840
 4189WAT     H228567   2.618   6.249   6.895  1.5192 -0.2282 -0.9794
 4190WAT      O28568   1.426   3.206   7.839  0.1968  0.9297 -0.2540
 4190WAT     H128569   1.364   3.263   7.794  0.9313  1.9053 -0.0707
 4190WAT     H228570   1.431   3.241   7.928  0.2766  0.2601  0.0127
 4191WAT      O28571   1.907   3.750   0.899 -0.3701  0.3579  0.5395
 4191WAT     H128572   1.963   3.794   0.963  0.7060  0.0298 -0.1635
 4191WAT     H228573   1.911   3.658   0.924  1.4573 -0.0291 -1.0008
 4192WAT      O28574   4.145   3.200   5.493  0.5184 -0.4578 -0.0227
 4192WAT     H128575   4.116   3.144   5.564 -1.2335  0.8673  0.3591
 4192WAT     H228576   4.069   3.207   5.435  1.3539 -0.0879 -1.1039
 4193WAT      O28577   5.498   5.466   7.796  0.4089 -0.0776 -0.0693
 4193WAT     H128578   5.540   5.450   7.880 -1.8245 -0.4763  1.0645
 4193WAT     H228579   5.439   5.541   7.813 -0.3058 -0.3665 -1.1692
 4194WAT      O28580   4.548   0.322   7.706 -0.2335 -1.0056  0.4259
 4194WAT     H128581   4.478   0.260   7.726 -1.3387 -0.3589 -1.2318
 4194WAT     H228582   4.611   0.272   7.654 -1.1142 -0.7915 -0.8924
 4195WAT      O28583   5.833   4.945   6.360 -0.6282 -0.1344 -0.0576
 4195WAT     H128584   5.815   4.942   6.266  1.8146 -4.1437 -0.6280
 4195WAT     H228585   5.898   5.015   6.370 -0.4527 -0.0641 -1.4708
 4196WAT      O28586   0.018   1.372   7.612  0.3034  0.2453 -0.0199
 4196WAT     H128587  -0.078   1.378   7.617  0.2348  0.9292 -1.5502
 4196WAT     H228588   0.049   1.449   7.658  0.0490  0.8274 -0.7958
 4197WAT      O28589   5.138   5.335   1.123 -0.1867  0.3175 -0.1436
 4197WAT     H128590   5.095   5.287   1.052 -1.1726  3.1806 -1.6676
 4197WAT     H228591   5.075   5.333   1.195 -0.1340 -0.7773 -0.1238
 4198WAT      O28592   5.660   1.617   1.806 -0.8768  0.1025  0.4123
 4198WAT     H128593   5.613   1.534   1.808 -0.9691  0.1655  1.1520
 4198WAT     H228594   5.634   1.658   1.723 -0.0368 -1.0567 -0.4535
 4199WAT      O28595   5.756   1.792   0.337 -0.3255 -0.1563 -0.2121
 4199WAT     H128596   5.760   1.711   0.287 -1.5408  0.2897 -1.0910
 4199WAT     H228597   5.668   1.792   0.376 -1.0948  1.5935 -1.8033
 4200WAT      O28598   3.543   3.477   6.230 -0.3137  0.0586  0.5280
 4200WAT     H128599   3.579   3.559   6.265  0.2114 -0.1735  0.5414
 4200WAT     H228600   3.568   3.411   6.294  1.3202 -0.5016 -0.6192
 4201WAT      O28601   4.701   5.458   6.415 -0.5076 -0.5242  0.5023
 4201WAT     H128602   4.660   5.432   6.333 -0.6259 -0.9298  0.6869
 4201WAT     H228603   4.783   5.499   6.389 -0.0908 -1.5072  0.2206
 4202WAT      O28604   5.397   2.469   7.623  0.0576  0.0894  0.3037
 4202WAT     H128605   5.320   2.443   7.571  0.9595 -0.1244 -0.9820
 4202WAT     H228606   5.405   2.563   7.608  0.3809  0.0089 -0.0321
 4203WAT      O28607   4.352   3.365   1.616  0.3331 -0.1475  0.1370
 4203WAT     H128608   4.273   3.356   1.564  1.5264  1.1891 -2.0543
 4203WAT     H228609   4.337   3.443   1.669  0.1100  0.0093 -0.1553
 4204WAT      O28610   3.162   3.556   7.240  0.8937 -0.3689 -0.2830
 4204WAT     H128611   3.172   3.641   7.282  2.1898 -0.7207  0.1747
 4204WAT     H228612   3.068   3.549   7.221  0.9962  2.0667 -2.2867
 4205WAT      O28613   1.641   3.890   1.746 -0.3080 -0.0614  0.5224
 4205WAT     H128614   1.559   3.867   1.703  0.2093 -0.9859 -0.0080
 4205WAT     H228615   1.620   3.886   1.840 -0.2475 -3.0617  0.5229
 4206WAT      O28616   0.572   2.808   1.918  0.0447  0.1195 -0.2100
 4206WAT     H128617   0.640   2.765   1.866  0.5515  1.8720 -1.0596
 4206WAT     H228618   0.534   2.872   1.858 -2.3327 -0.7589  0.2734
 4207WAT      O28619   5.514   3.809   6.636 -0.5015 -0.1699  0.4878
 4207WAT     H128620   5.497   3.729   6.685  1.0095 -0.1349  1.1492
 4207WAT     H228621   5.550   3.870   6.700 -0.6791  0.7022 -0.2111
 4208WAT      O28622   4.236   1.334   7.305 -0.5173  0.1369 -0.2484
 4208WAT     H128623   4.144   1.361   7.303 -0.5498  0.3083  1.7599
 4208WAT     H228624   4.238   1.262   7.367  0.8200  0.6083  0.2780
 4209WAT      O28625   5.908   2.191   2.123 -0.2580 -0.6354 -0.3339
 4209WAT     H128626   5.922   2.097   2.136 -0.6519 -0.5829  0.5798
 4209WAT     H228627   5.820   2.197   2.086  0.1874 -0.6843 -1.4095
 4210WAT      O28628   5.726   0.288   1.038 -0.0462  0.2572 -0.3166
 4210WAT     H128629   5.797   0.232   1.070 -1.1981 -1.2754 -0.3199
 4210WAT     H228630   5.716   0.354   1.107 -0.1929 -0.9450  0.8640
 4211WAT      O28631   3.829   0.506   0.555 -0.0203 -0.3567 -0.2496
 4211WAT     H128632   3.861   0.526   0.467 -1.6925 -2.0606 -1.2957
 4211WAT     H228633   3.818   0.591   0.596 -0.9728  0.5831 -2.3341
 4212WAT      O28634   5.937   5.872   6.969  0.2425 -0.7185 -0.3043
 4212WAT     H128635   5.848   5.896   6.943  0.2833  1.4853  1.2875
 4212WAT     H228636   5.993   5.932   6.919  0.7367 -0.9999 -0.0987
 4213WAT      O28637   3.340   1.600   0.949 -0.6031  0.4003  0.0976
 4213WAT     H128638   3.291   1.520   0.966  1.0017 -0.9850 -1.4261
 4213WAT     H228639   3.417   1.594   1.004  0.6459 -0.2652 -1.6276
 4214WAT      O28640   4.869   0.194   6.178 -0.1016  0.1742  0.0667
 4214WAT     H128641   4.890   0.273   6.130 -2.6101 -0.5553 -2.5160
 4214WAT     H228642   4.888   0.123   6.117 -2.0933 -0.8966  0.5873
 4215WAT      O28643   0.066   5.551   1.193 -1.0377  0.5747 -0.1271
 4215WAT     H128644   0.162   5.548   1.191 -1.0587  0.1835 -1.4988
 4215WAT     H228645   0.044   5.563   1.286  0.3196  0.2465  0.2570
 4216WAT      O28646   1.354   2.811   6.856  0.1911  0.5053 -0.0188
 4216WAT     H128647   1.347   2.772   6.769 -2.0689  1.1583 -0.1911
 4216WAT     H228648   1.266   2.844   6.875  0.6969  0.6440  2.4055
 4217WAT      O28649   1.451   5.580   0.830 -0.4991  0.4956 -0.0930
 4217WAT     H128650   1.507   5.510   0.864 -0.3104  0.8807  0.3879
 4217WAT     H228651   1.511   5.651   0.809 -0.8295  1.0144  0.6854
 4218WAT      O28652   4.319   1.987   1.851  0.5321  0.1141 -0.0661
 4218WAT     H128653   4.240   1.939   1.829  1.3582 -1.0422 -0.6258
 4218WAT     H228654   4.358   1.937   1.923  1.2268  0.1448 -0.4164
 4219WAT      O28655   5.002   2.456   6.776  0.1089  0.3448 -0.1875
 4219WAT     H128656   4.995   2.423   6.686 -0.7894  1.5864 -0.5871
 4219WAT     H228657   4.959   2.388   6.829  2.2562 -1.3094 -0.4203
 4220WAT      O28658   2.429   0.292   5.867 -0.1799 -0.2648  0.4850
 4220WAT     H128659   2.444   0.362   5.931 -1.4241  0.3818  0.0866
 4220WAT     H228660   2.449   0.211   5.915 -2.1038  0.1206  2.0499
 4221WAT      O28661   3.167   4.113   0.118  0.2504  0.2765 -0.2468
 4221WAT     H128662   3.180   4.190   0.064 -0.9618  1.6001  1.2633
 4221WAT     H228663   3.121   4.051   0.061 -0.6622  1.4806 -0.8535
 4222WAT      O28664   1.360   1.402   7.220  0.0379  0.3498  0.3214
 4222WAT     H128665   1.402   1.470   7.168  2.0064 -2.6040 -2.3476
 4222WAT     H228666   1.287   1.372   7.167  0.3856 -0.8862  0.5103
 4223WAT      O28667   5.599   0.768   1.382 -0.4012  0.0442  0.4417
 4223WAT     H128668   5.583   0.677   1.408 -0.7597  0.2970  1.1001
 4223WAT     H228669   5.529   0.788   1.320  0.4858 -0.5734 -0.8151
 4224WAT      O28670   6.205   2.444   0.727  0.4958 -0.0232 -0.1678
 4224WAT     H128671   6.115   2.470   0.708  0.6141  0.9357  0.5255
 4224WAT     H228672   6.257   2.522   0.710  1.0247 -0.1615  0.7469
 4225WAT      O28673   4.814   4.736   0.087 -0.2777 -0.0097 -0.2171
 4225WAT     H128674   4.754   4.779   0.147  0.0638 -0.5082  0.4974
 4225WAT     H228675   4.898   4.780   0.101 -0.0959 -0.4145 -0.0065
 4226WAT      O28676   5.986   1.800   0.089 -0.3775 -0.0396 -0.5901
 4226WAT     H128677   5.918   1.866   0.078 -1.2433 -1.0655 -1.7313
 4226WAT     H228678   5.944   1.718   0.063  0.4613 -1.1740  1.3661
 4227WAT      O28679   2.451   1.912   7.375  0.6861  0.9148 -0.0035
 4227WAT     H128680   2.477   1.820   7.384 -0.4268  0.6587  0.7848
 4227WAT     H228681   2.519   1.951   7.319  1.6433 -0.1762  0.3639
 4228WAT      O28682   3.832   4.986   0.607  0.2917  0.1458 -0.4269
 4228WAT     H128683   3.858   5.066   0.653  1.2009  0.5311 -1.5671
 4228WAT     H228684   3.874   4.915   0.655  0.0907  0.4136  0.1487
 4229WAT      O28685   3.109   5.042   1.756  0.3593  0.2187  0.1776
 4229WAT     H128686   3.137   5.080   1.839  1.7955  1.7426 -0.9472
 4229WAT     H228687   3.018   5.014   1.772  0.5763  0.5021  2.2096
 4230WAT      O28688   1.205   2.058   1.062 -0.2211 -0.1020  0.2117
 4230WAT     H128689   1.145   2.133   1.057 -0.2497 -0.0860  0.7097
 4230WAT     H228690   1.282   2.085   1.012 -1.0603 -0.5508 -1.4125
 4231WAT      O28691   5.560   4.333   6.271 -0.1129 -0.7736  0.6229
 4231WAT     H128692   5.585   4.242   6.283  0.0917 -0.5110  2.4669
 4231WAT     H228693   5.517   4.357   6.353 -1.9818  0.2372 -0.5682
 4232WAT      O28694   4.273   1.184   0.604  0.3029 -0.0382 -0.2463
 4232WAT     H128695   4.227   1.207   0.523  0.9556 -1.3450 -1.0199
 4232WAT     H228696   4.261   1.089   0.612 -1.6986  0.3429  2.4371
 4233WAT      O28697   0.075   1.942   1.778 -0.1104  0.1349  0.1237
 4233WAT     H128698   0.089   2.016   1.837  0.8981 -0.0758  0.1579
 4233WAT     H228699   0.096   1.865   1.831 -0.2727 -0.1221 -0.1828
 4234WAT      O28700   0.432   5.252   0.473  0.5615  0.4773  0.6375
 4234WAT     H128701   0.466   5.197   0.544 -0.2940  1.7937  2.1568
 4234WAT     H228702   0.467   5.339   0.492  0.3012  0.8651 -0.5794
 4235WAT      O28703   6.037   2.310   1.582  0.6259  0.2572 -0.3784
 4235WAT     H128704   6.066   2.227   1.544 -1.3518 -0.3577 -0.6327
 4235WAT     H228705   6.024   2.291   1.675  2.6725  1.0107  0.1173
 4236WAT      O28706   5.534   2.776   2.242 -0.0918  0.7377 -0.3770
 4236WAT     H128707   5.552   2.743   2.331 -1.1824 -0.4480 -0.5644
 4236WAT     H228708   5.617   2.763   2.195 -0.4588 -1.9104 -0.4483
 4237WAT      O28709   1.357   3.660   5.941 -0.5192  0.2079 -0.1661
 4237WAT     H128710   1.328   3.630   5.855 -1.9982  0.4018  0.2372
 4237WAT     H228711   1.316   3.746   5.951 -2.0177 -0.6319  1.5244
 4238WAT      O28712   3.919   0.073   0.264  0.1410 -0.0569 -0.7364
 4238WAT     H128713   3.979   0.143   0.287  0.9577 -1.7563  2.9918
 4238WAT     H228714   3.972   0.010   0.215  0.2509  0.3974 -1.2066
 4239WAT      O28715   5.805   5.518   0.482  0.0053  0.2616  0.4333
 4239WAT     H128716   5.731   5.460   0.488 -0.3549  0.6718 -0.0082
 4239WAT     H228717   5.789   5.572   0.405  0.9321  0.1081  0.0999
 4240WAT      O28718   4.460   1.776   7.314 -0.8969  0.2086  0.0963
 4240WAT     H128719   4.538   1.766   7.261 -1.4924  0.8623 -0.9360
 4240WAT     H228720   4.449   1.691   7.357 -1.0632 -0.7587 -1.7747
 4241WAT      O28721   5.391   2.301   6.674 -0.7869 -0.4148  0.4052
 4241WAT     H128722   5.329   2.284   6.603  0.5821  0.0604 -0.9337
 4241WAT     H228723   5.383   2.395   6.692 -0.1630 -0.2633 -0.0730
 4242WAT      O28724   5.382   5.439   0.370  0.3383 -0.0408  0.3352
 4242WAT     H128725   5.310   5.396   0.417  0.8772 -0.4997  0.7601
 4242WAT     H228726   5.456   5.434   0.430  0.7415  0.3860 -0.1160
 4243WAT      O28727   5.001   3.979   0.848  0.3257 -0.0972  0.1669
 4243WAT     H128728   4.951   4.019   0.919  1.2023  0.4405  0.5119
 4243WAT     H228729   5.080   3.944   0.891  0.7528  0.0243 -0.4994
 4244WAT      O28730   6.197   0.007   0.322  0.1376  0.3851  0.3392
 4244WAT     H128731   6.264   0.070   0.351 -0.3062  0.9746  0.0944
 4244WAT     H228732   6.204  -0.064   0.386  0.4308  0.8249  0.8154
 4245WAT      O28733   6.099   4.841   5.710 -0.2210  0.1555  0.0498
 4245WAT     H128734   6.079   4.806   5.623  0.5478 -2.9970  0.9947
 4245WAT     H228735   6.121   4.763   5.762  2.2506  2.1651  2.2831
 4246WAT      O28736   3.112   2.111   6.886 -0.3258  1.3864  0.4383
 4246WAT     H128737   3.077   2.122   6.975 -1.0206  1.0883  0.2070
 4246WAT     H228738   3.035   2.107   6.830 -0.2313 -3.1173  0.2910
 4247WAT      O28739   2.150   1.021   0.392 -0.0924  0.3369 -0.2129
 4247WAT     H128740   2.112   0.969   0.321 -1.7400 -0.6960  1.3582
 4247WAT     H228741   2.244   1.020   0.374 -0.4240 -0.2421 -2.1439
 4248WAT      O28742   1.195   2.931   6.091 -0.6175 -0.1791  0.1781
 4248WAT     H128743   1.266   2.867   6.078 -0.4980  0.1803 -1.0284
 4248WAT     H228744   1.140   2.892   6.159 -0.5726 -1.6072 -0.5714
 4249WAT      O28745   3.638   1.005   7.455  0.1824  0.3595  0.3693
 4249WAT     H128746   3.609   1.069   7.520  0.7753  3.0103 -1.7806
 4249WAT     H228747   3.733   1.003   7.463  0.1568 -0.4432  0.5533
 4250WAT      O28748   3.680   2.794   0.414  0.3023 -0.2849  0.2702
 4250WAT     H128749   3.694   2.798   0.319 -0.9533 -1.5955 -0.0113
 4250WAT     H228750   3.703   2.881   0.445  1.9917 -0.2123 -1.0423
 4251WAT      O28751   6.080   5.352   1.038 -0.4785 -0.4751  0.2445
 4251WAT     H128752   6.088   5.411   1.113 -0.7336  0.1228 -0.1890
 4251WAT     H228753   6.161   5.365   0.988 -0.2411 -0.9836  0.4876
 4252WAT      O28754   5.094   0.924   7.747  0.2307  0.5627  0.1633
 4252WAT     H128755   5.001   0.938   7.761 -0.0225 -1.3104  0.6520
 4252WAT     H228756   5.127   0.896   7.832  1.4959  2.2326  0.2772
 4253WAT      O28757   4.787   1.255   6.798  0.7062  0.5395 -0.0894
 4253WAT     H128758   4.875   1.217   6.797  0.9641  0.8841  2.5812
 4253WAT     H228759   4.801   1.347   6.823 -0.4584  0.0771  2.6462
 4254WAT      O28760   4.870   5.283   7.696 -0.1749 -0.3020 -0.3119
 4254WAT     H128761   4.814   5.337   7.752 -1.0292  0.7166 -2.0824
 4254WAT     H228762   4.848   5.309   7.607  2.7216 -0.2725 -1.1133
 4255WAT      O28763   4.567   5.856   7.551  0.6094  0.2500  0.2051
 4255WAT     H128764   4.598   5.772   7.516 -0.0187 -0.1622  0.5985
 4255WAT     H228765   4.587   5.852   7.644  0.5540  0.5244  0.2288
 4256WAT      O28766   3.102   3.018   6.444  0.6538  0.3976 -0.1757
 4256WAT     H128767   3.046   2.940   6.445 -0.4195  1.1327  0.3310
 4256WAT     H228768   3.056   3.081   6.501  2.2177  0.9017  0.5995
 4257WAT      O28769   5.351   5.089   0.523  0.5706  0.0207  0.1717
 4257WAT     H128770   5.427   5.064   0.577  0.0139 -1.6653  0.2310
 4257WAT     H228771   5.361   5.038   0.443 -1.3177 -1.5097  0.8336
 4258WAT      O28772   1.976   4.770   5.911  0.7426 -0.2045  0.2597
 4258WAT     H128773   2.055   4.716   5.914  0.9756  0.0811  4.0319
 4258WAT     H228774   2.001   4.852   5.955 -0.5620  1.6942 -2.2582
 4259WAT      O28775   5.315   2.506   1.181 -0.0665 -0.1171 -0.5334
 4259WAT     H128776   5.285   2.596   1.198  1.1079  0.2247 -0.1714
 4259WAT     H228777   5.365   2.482   1.259 -0.4460 -1.1196 -0.5995
 4260WAT      O28778   0.448   2.063   6.203 -0.1861  0.1134 -0.4486
 4260WAT     H128779   0.516   1.999   6.182  0.5913  0.9132 -0.4109
 4260WAT     H228780   0.396   2.069   6.123 -0.1841 -0.4638 -0.4993
 4261WAT      O28781   0.450   3.165   6.855  0.2650  0.5687  0.0438
 4261WAT     H128782   0.378   3.109   6.824  0.6376 -0.9539  1.7559
 4261WAT     H228783   0.416   3.254   6.848 -1.4020 -0.0532 -0.1725
 4262WAT      O28784   0.713   2.004   7.218  0.5522 -0.2339 -0.1168
 4262WAT     H128785   0.728   1.947   7.294  1.0817  1.2542  0.9507
 4262WAT     H228786   0.721   2.092   7.253 -1.1805  0.5471 -1.5084
 4263WAT      O28787   2.307   2.862   1.761  0.1289  0.4193  0.9333
 4263WAT     H128788   2.223   2.876   1.805  0.0402 -0.0765  0.9283
 4263WAT     H228789   2.372   2.867   1.832  0.3076  2.6529  0.6958
 4264WAT      O28790   5.732   1.397   6.587 -0.2421 -0.3124  0.3649
 4264WAT     H128791   5.770   1.484   6.605  1.3416 -1.0033  0.4923
 4264WAT     H228792   5.679   1.410   6.509  1.0728  0.4929 -0.4230
 4265WAT      O28793   1.793   3.267   0.845 -0.1027 -0.2658 -0.2064
 4265WAT     H128794   1.718   3.220   0.883  0.4840 -1.6590 -0.7065
 4265WAT     H228795   1.755   3.319   0.775 -0.5973 -1.1608 -0.6351
 4266WAT      O28796   3.491   5.456   6.637  0.5833 -0.6065  0.0930
 4266WAT     H128797   3.478   5.374   6.685 -0.4063 -0.5061  0.0169
 4266WAT     H228798   3.496   5.429   6.545 -1.4272 -0.4647 -0.1070
 4267WAT      O28799   4.262   0.794   7.778 -0.2052  0.1159 -0.4151
 4267WAT     H128800   4.224   0.802   7.865 -0.7705 -0.6222 -0.5860
 4267WAT     H228801   4.320   0.718   7.784 -0.4975 -0.1406 -0.7629
 4268WAT      O28802   0.992   0.659   1.145 -0.5225  0.3754  0.0941
 4268WAT     H128803   0.994   0.645   1.239 -2.9767  0.1321  0.1551
 4268WAT     H228804   1.076   0.624   1.114  0.3587  0.5500  2.1676
 4269WAT      O28805   0.824   3.521   7.124 -0.2726  0.2900  0.5378
 4269WAT     H128806   0.778   3.437   7.124  1.0819 -0.4829  0.7129
 4269WAT     H228807   0.842   3.538   7.216 -0.7602  0.9116  0.5249
 4270WAT      O28808   2.793   2.188   6.863 -0.4605  0.0015 -0.1992
 4270WAT     H128809   2.765   2.271   6.824  0.1436  0.7870  0.9597
 4270WAT     H228810   2.723   2.127   6.842 -1.4540  1.0837 -0.1531
 4271WAT      O28811   2.732   2.977   6.947 -0.2834  0.0443  0.5661
 4271WAT     H128812   2.760   3.063   6.916 -2.2501  0.8499  0.8501
 4271WAT     H228813   2.779   2.914   6.892  1.7610  1.2487  0.8414
 4272WAT      O28814   3.393   0.486   1.360  0.5152 -0.3943  0.1491
 4272WAT     H128815   3.431   0.572   1.342  1.4857 -0.4605  1.7341
 4272WAT     H228816   3.408   0.436   1.280 -0.2680  0.9629 -0.8796
 4273WAT      O28817   0.425   2.586   0.421 -0.4082 -0.3224 -0.1137
 4273WAT     H128818   0.430   2.644   0.345 -0.9108  2.0917  1.5565
 4273WAT     H228819   0.503   2.608   0.473 -1.7336  0.5738  1.6128
 4274WAT      O28820   5.557   3.153   0.230 -0.0225 -0.8765 -0.8452
 4274WAT     H128821   5.597   3.145   0.143 -1.6408  0.5132 -1.7749
 4274WAT     H228822   5.567   3.245   0.252  0.8303 -1.3140  0.7287
 4275WAT      O28823   5.748   4.268   0.178 -0.7459  0.2402 -0.1642
 4275WAT     H128824   5.821   4.310   0.133 -1.2646 -1.1311 -2.4491
 4275WAT     H228825   5.786   4.234   0.259  0.8068  0.8120 -0.6086
 4276WAT      O28826   3.114   1.216   0.159  0.0666 -0.2993  0.5633
 4276WAT     H128827   3.168   1.293   0.175  0.1489 -0.3017  0.3072
 4276WAT     H228828   3.045   1.247   0.100 -0.3215 -0.2513  1.0301
 4277WAT      O28829   5.781   3.243   1.146  0.1874  0.2018 -0.3041
 4277WAT     H128830   5.820   3.158   1.167  0.8299  0.4058 -0.6378
 4277WAT     H228831   5.723   3.261   1.219  0.4043 -0.3110  0.0045
 4278WAT      O28832   1.257   0.392   6.674  0.7121  0.3566  0.4212
 4278WAT     H128833   1.218   0.430   6.595  1.1164 -2.2476 -1.1258
 4278WAT     H228834   1.231   0.300   6.672  1.1171  0.1016  3.1449
 4279WAT      O28835   5.017   5.272   0.877 -0.6082  0.4891 -0.3044
 4279WAT     H128836   4.968   5.268   0.795 -0.2796 -0.2415 -0.4678
 4279WAT     H228837   5.093   5.216   0.863 -0.7252  0.0812  0.6145
 4280WAT      O28838   1.661   2.164   0.396  0.0786 -0.3505  0.0350
 4280WAT     H128839   1.711   2.123   0.325 -0.6397 -1.4798  0.1480
 4280WAT     H228840   1.680   2.111   0.473  0.9801  0.9652  0.7545
 4281WAT      O28841   2.318   3.611   0.127  0.0751  0.1606  0.1685
 4281WAT     H128842   2.262   3.648   0.195 -0.6939  0.0282 -0.3718
 4281WAT     H228843   2.382   3.678   0.109  0.0855  0.3282  0.7879
 4282WAT      O28844   3.818   3.028   0.030  0.2996 -0.4293 -0.1410
 4282WAT     H128845   3.783   3.013  -0.058  1.5088  0.7946 -0.8692
 4282WAT     H228846   3.876   3.103   0.020 -0.4925  0.5379  1.9665
 4283WAT      O28847   2.678   4.385   5.409  0.0847 -0.1160  0.5169
 4283WAT     H128848   2.712   4.310   5.361  0.4153 -1.2712  2.4717
 4283WAT     H228849   2.615   4.348   5.470  0.4992  1.1516  1.7681
 4284WAT      O28850   0.398   0.789   0.059  0.5288  0.5201 -0.0264
 4284WAT     H128851   0.484   0.801   0.018 -0.8169  2.5315 -2.5678
 4284WAT     H228852   0.378   0.874   0.098  0.1261 -0.2734  1.5910
 4285WAT      O28853   3.924   5.226   7.020  0.1117 -0.2564 -0.1028
 4285WAT     H128854   3.893   5.297   6.964  0.0972 -0.6720 -0.6410
 4285WAT     H228855   4.019   5.240   7.026  0.1131 -0.2050 -0.2288
 4286WAT      O28856   4.037   3.212   5.069  0.0026 -0.3522  0.9532
 4286WAT     H128857   4.089   3.135   5.089 -0.2639 -1.3614 -1.8054
 4286WAT     H228858   3.996   3.236   5.152 -0.4717 -3.6087  1.7924
 4287WAT      O28859   6.198   4.166   6.481 -0.0982 -0.0241 -0.0669
 4287WAT     H128860   6.222   4.137   6.568 -1.2110  0.4405  0.4218
 4287WAT     H228861   6.222   4.259   6.479 -0.0271 -0.0450 -0.2815
 4288WAT      O28862   4.109   0.936   7.636  0.7735  0.3560 -0.1894
 4288WAT     H128863   4.178   0.892   7.685  0.4041  0.0514  0.0589
 4288WAT     H228864   4.055   0.866   7.601 -1.2275  0.5510  2.1981
 4289WAT      O28865   0.897   3.363   2.279 -0.1817 -0.1476  0.4600
 4289WAT     H128866   0.838   3.308   2.330 -1.8355  1.5224  0.4601
 4289WAT     H228867   0.854   3.372   2.194 -0.4772  1.9081  0.7836
 4290WAT      O28868   0.764   4.935   0.683 -0.1429 -0.1101 -0.0237
 4290WAT     H128869   0.748   4.844   0.710 -0.3910  0.1207  0.6182
 4290WAT     H228870   0.859   4.941   0.676 -0.0722 -0.1936  0.7564
 4291WAT      O28871   3.433   4.009   2.132 -0.4004  0.4637  0.2116
 4291WAT     H128872   3.490   4.064   2.078  2.1338 -2.3032 -0.1970
 4291WAT     H228873   3.491   3.942   2.168 -2.9471 -0.8539  2.2276
 4292WAT      O28874   5.888   0.758   1.439 -1.1237 -0.3607 -0.1350
 4292WAT     H128875   5.884   0.673   1.482 -0.4971 -1.0380 -1.3498
 4292WAT     H228876   5.797   0.776   1.413 -1.3500 -0.3762  0.6224
 4293WAT      O28877   0.512   4.134   6.117 -0.2780  0.6421  0.2517
 4293WAT     H128878   0.487   4.224   6.095 -4.5319 -0.4955 -0.4525
 4293WAT     H228879   0.535   4.095   6.033 -1.4281  0.3151  0.0773
 4294WAT      O28880   1.337   2.929   6.399  0.2035 -0.3907  0.3050
 4294WAT     H128881   1.394   2.934   6.323  0.5994 -0.2636  0.6046
 4294WAT     H228882   1.276   3.002   6.389 -0.6751 -1.2207 -0.6169
 4295WAT      O28883   1.813   5.887   7.125 -0.2163  0.4746 -0.7625
 4295WAT     H128884   1.750   5.901   7.054  0.2711 -2.1287 -1.8141
 4295WAT     H228885   1.830   5.793   7.124  0.8719  0.5449  1.9476
 4296WAT      O28886   4.911   1.015   6.264 -0.0329 -0.2204 -0.4906
 4296WAT     H128887   4.829   0.965   6.261 -1.8621  2.5672 -1.0219
 4296WAT     H228888   4.894   1.084   6.329  1.5971  0.9095 -1.2061
 4297WAT      O28889   0.108   0.403   0.018 -0.1558  0.7582 -0.1200
 4297WAT     H128890   0.157   0.484   0.004  0.7713  0.0362 -1.1818
 4297WAT     H228891   0.173   0.334   0.017 -0.5832  0.1176  3.2921
 4298WAT      O28892   4.450   0.519   6.468  0.4031 -0.1011  0.3110
 4298WAT     H128893   4.528   0.575   6.468 -0.3695  1.0259  0.6362
 4298WAT     H228894   4.437   0.495   6.377  0.9782 -0.0847  0.2197
 4299WAT      O28895   3.910   3.226   6.220 -0.2233  0.9225 -0.0904
 4299WAT     H128896   3.971   3.236   6.147 -0.4977  0.9289 -0.3249
 4299WAT     H228897   3.945   3.281   6.289  0.9839 -0.3960  0.4084
 4300WAT      O28898   1.350   2.539   7.105  0.1503  0.0383  0.5591
 4300WAT     H128899   1.423   2.590   7.070  1.5279 -1.9676  0.3553
 4300WAT     H228900   1.391   2.463   7.145 -1.5897  0.7215  3.9767
 4301WAT      O28901   2.122   4.305   7.645 -0.1267 -0.1238  0.2440
 4301WAT     H128902   2.115   4.400   7.650 -1.2632 -0.0601 -1.7359
 4301WAT     H228903   2.054   4.273   7.705  0.2765  0.2845  0.9374
 4302WAT      O28904   5.536   3.467   0.580  0.4043  0.4886 -0.2745
 4302WAT     H128905   5.512   3.377   0.603  0.0367  0.8506  0.7856
 4302WAT     H228906   5.500   3.479   0.492  2.1859 -1.0452 -1.2937
 4303WAT      O28907   1.987   2.237   1.465  0.0418  0.6714 -0.3656
 4303WAT     H128908   1.960   2.273   1.550 -1.2801 -0.7045 -0.1581
 4303WAT     H228909   1.996   2.143   1.481  3.0922  0.7609 -0.9618
 4304WAT      O28910   5.566   0.721   6.519  0.2783 -0.1987 -0.0087
 4304WAT     H128911   5.574   0.735   6.425  0.4450  1.1709  0.1884
 4304WAT     H228912   5.531   0.632   6.527 -1.6558  0.3664 -1.4253
 4305WAT      O28913   6.095   5.735   6.669 -0.0321  0.0879 -0.0775
 4305WAT     H128914   6.049   5.700   6.745  0.0290 -2.6837 -1.1942
 4305WAT     H228915   6.037   5.804   6.636 -0.7347  0.3744  1.6268
 4306WAT      O28916   0.117   4.343   0.999  0.6584 -0.1400  0.1109
 4306WAT     H128917   0.144   4.254   1.022  0.6040 -0.0771  0.4209
 4306WAT     H228918   0.049   4.331   0.934 -1.0763 -0.4115  1.8780
 4307WAT      O28919   5.482   2.401   1.590 -0.2080  0.0193 -0.9349
 4307WAT     H128920   5.424   2.348   1.645  0.3128  1.4497  1.1222
 4307WAT     H228921   5.567   2.397   1.635  0.5820  0.2611 -2.3370
 4308WAT      O28922   5.067   3.646   0.358 -0.3574 -0.1148 -0.2483
 4308WAT     H128923   5.017   3.695   0.422  0.2461 -0.7004  0.6946
 4308WAT     H228924   5.016   3.652   0.277 -0.8746  1.0470  0.1513
 4309WAT      O28925   2.098   5.935   1.095 -0.9148  0.1037  0.7720
 4309WAT     H128926   2.180   5.978   1.070 -0.3391 -1.5301 -0.3032
 4309WAT     H228927   2.029   5.994   1.064 -0.2165  1.9960  2.5831
 4310WAT      O28928   0.914   3.529   6.254 -0.4516 -0.2208  0.3450
 4310WAT     H128929   0.954   3.531   6.167 -3.3112 -1.0019 -1.0848
 4310WAT     H228930   0.870   3.613   6.263 -0.5674 -0.3319  0.8736
 4311WAT      O28931   1.655   2.686   6.850  0.1780 -0.3129 -0.2635
 4311WAT     H128932   1.583   2.647   6.801  2.0426 -0.4770 -3.1551
 4311WAT     H228933   1.640   2.660   6.940 -2.5933 -1.5008 -0.9725
 4312WAT      O28934   0.708   1.487   1.286 -0.3021  0.3486  0.2136
 4312WAT     H128935   0.650   1.562   1.295 -1.2651 -0.3642  0.0663
 4312WAT     H228936   0.792   1.517   1.322 -0.3952  1.7901 -0.6730
 4313WAT      O28937   2.305   4.360   5.632 -0.0652  0.4208  0.4214
 4313WAT     H128938   2.312   4.455   5.644  1.1346  0.4469 -0.3455
 4313WAT     H228939   2.319   4.346   5.538  2.2168 -0.6779  0.8502
 4314WAT      O28940   4.441   0.837   1.229 -0.1489  0.0200 -0.3695
 4314WAT     H128941   4.391   0.856   1.308 -0.4558  1.0432 -0.7840
 4314WAT     H228942   4.500   0.766   1.253  2.6699  2.8927  2.0308
 4315WAT      O28943   5.665   3.011   2.290 -0.3072  0.6183 -0.3227
 4315WAT     H128944   5.591   2.950   2.301  0.0826  0.5996  3.9064
 4315WAT     H228945   5.741   2.962   2.321  0.4301  2.4022  0.8339
 4316WAT      O28946   5.664   0.537   6.056  0.1720 -0.1607  0.2723
 4316WAT     H128947   5.696   0.464   6.003  1.1303 -0.3590  1.0931
 4316WAT     H228948   5.585   0.567   6.010  0.4167 -0.9545 -0.7107
 4317WAT      O28949   4.360   1.134   5.362 -0.7673  0.3658 -0.7262
 4317WAT     H128950   4.433   1.187   5.394 -0.7249 -0.0226 -0.1607
 4317WAT     H228951   4.333   1.083   5.438 -3.1319  2.1381 -0.2549
 4318WAT      O28952   2.660   0.635   6.598 -0.3958 -0.4208  0.1594
 4318WAT     H128953   2.571   0.649   6.565 -0.7068 -2.7097 -0.1476
 4318WAT     H228954   2.648   0.588   6.680  0.5486 -0.0694  0.5155
 4319WAT      O28955   0.854   6.019   6.951  0.4127  0.2985  0.0733
 4319WAT     H128956   0.882   5.936   6.988 -0.5850 -0.8421 -1.6033
 4319WAT     H228957   0.907   6.085   6.996  0.7012 -1.1531  1.9745
 4320WAT      O28958   2.831   0.203   7.402 -0.5212 -0.5925  0.3176
 4320WAT     H128959   2.872   0.270   7.456 -1.4213 -0.0845  0.4030
 4320WAT     H228960   2.876   0.122   7.426  1.9239  0.2179 -1.1952
 4321WAT      O28961   6.131   5.818   1.166  0.2513 -0.6664 -0.0639
 4321WAT     H128962   6.156   5.888   1.105  1.0800 -0.3981  0.5681
 4321WAT     H228963   6.177   5.741   1.134  0.5416 -0.5666  0.1018
 4322WAT      O28964   3.713   4.191   0.877 -0.3414  0.2326 -0.2322
 4322WAT     H128965   3.707   4.285   0.862  0.2861 -0.0209 -2.3258
 4322WAT     H228966   3.690   4.151   0.793  1.0844 -1.4429  0.1175
 4323WAT      O28967   5.624   0.923   6.880 -0.7432  0.5324 -0.4044
 4323WAT     H128968   5.530   0.920   6.861 -1.1101  2.5621  0.7088
 4323WAT     H228969   5.656   0.997   6.828 -0.5927  2.3354  2.0876
 4324WAT      O28970   1.931   2.514   5.911 -0.2532 -0.0372  0.2533
 4324WAT     H128971   1.972   2.592   5.873 -1.3590 -0.1791 -1.3600
 4324WAT     H228972   2.001   2.470   5.958  1.0461  0.5541 -1.0548
 4325WAT      O28973   5.482   0.093   7.739 -0.0178 -0.3691  0.4590
 4325WAT     H128974   5.505   0.185   7.731 -0.2108 -0.3256  0.4095
 4325WAT     H228975   5.562   0.051   7.771  0.0173 -0.1581  0.6509
 4326WAT      O28976   3.067   3.021   1.763 -0.2169 -0.1885  0.0615
 4326WAT     H128977   3.144   2.997   1.712  1.0492 -0.1104  1.8386
 4326WAT     H228978   3.094   3.099   1.812 -0.2020 -2.0004  3.2121
 4327WAT      O28979   2.827   5.807   7.891 -0.6324 -0.2974  0.3643
 4327WAT     H128980   2.870   5.741   7.837  1.4826  0.6993  0.7231
 4327WAT     H228981   2.881   5.812   7.970 -2.5219 -0.3049  1.7299
 4328WAT      O28982   4.592   2.358   6.191 -0.1566  0.0211  0.0048
 4328WAT     H128983   4.671   2.316   6.158 -0.4977 -2.0649  1.6202
 4328WAT     H228984   4.532   2.357   6.116  1.0712  1.0102 -1.0319
 4329WAT      O28985   4.840   2.860   0.778 -0.1265  0.3619  0.0271
 4329WAT     H128986   4.756   2.837   0.817 -0.9134  0.0500 -1.7701
 4329WAT     H228987   4.905   2.823   0.838 -1.2916 -0.8889  0.5661
 4330WAT      O28988   2.894   0.817   0.864 -0.8004 -0.3863 -0.3422
 4330WAT     H128989   2.982   0.779   0.866 -0.3975  0.5571  0.6329
 4330WAT     H228990   2.908   0.908   0.835 -1.3342  0.0566  0.7479
 4331WAT      O28991   0.807   2.384   6.974 -0.6183  0.7238 -0.7125
 4331WAT     H128992   0.862   2.333   7.035  0.1547 -0.1974 -2.1277
 4331WAT     H228993   0.732   2.412   7.027  0.1232  0.1215  0.7094
 4332WAT      O28994   3.762   2.261   7.043 -0.0025 -0.0773  0.0697
 4332WAT     H128995   3.770   2.241   7.137 -0.5818 -1.2728 -0.1260
 4332WAT     H228996   3.825   2.332   7.029 -2.0707  2.3543  2.0016
 4333WAT      O28997   4.067   1.618   0.438 -0.3646 -0.7185  0.2488
 4333WAT     H128998   4.104   1.695   0.481  0.0933 -0.0574 -1.2557
 4333WAT     H228999   4.032   1.565   0.509 -0.4912  0.7708  1.3373
 4334WAT      O29000   5.858   1.192   1.005 -0.1337  0.8389 -0.1684
 4334WAT     H129001   5.867   1.270   0.951  0.9985  0.8245 -0.0308
 4334WAT     H229002   5.863   1.224   1.095  0.8684  0.5737 -0.1142
 4335WAT      O29003   1.320   2.787   7.354  0.0895 -0.3855 -0.6148
 4335WAT     H129004   1.410   2.789   7.387 -0.1378 -2.3501  0.2512
 4335WAT     H229005   1.328   2.808   7.261  1.5681 -1.3989 -0.7485
 4336WAT      O29006   5.335   4.809   1.632 -0.3657 -0.2454  0.5519
 4336WAT     H129007   5.335   4.714   1.636 -1.6448 -0.3138 -0.3980
 4336WAT     H229008   5.308   4.838   1.719 -0.1164 -0.7479  0.7981
 4337WAT      O29009   3.599   4.184   1.688  0.2162  0.0647 -0.4015
 4337WAT     H129010   3.566   4.274   1.680  0.8685  0.2556 -1.0591
 4337WAT     H229011   3.692   4.191   1.668 -0.3596 -1.2905 -4.2845
 4338WAT      O29012   4.064   5.822   1.212  0.2366 -0.2237 -0.4177
 4338WAT     H129013   3.969   5.837   1.220  0.2117  0.6921 -2.0767
 4338WAT     H229014   4.102   5.909   1.207  1.0636 -0.6007 -0.8413
 4339WAT      O29015   5.108   6.130   6.487  0.0252  0.5617 -0.2363
 4339WAT     H129016   5.127   6.223   6.502  2.0662  0.0805  0.4441
 4339WAT     H229017   5.164   6.105   6.414  0.3019 -0.3883  0.2820
 4340WAT      O29018   0.071   2.688   6.437 -0.1083 -0.1593  0.5298
 4340WAT     H129019   0.119   2.730   6.508 -1.2206 -1.3855  2.0503
 4340WAT     H229020   0.082   2.594   6.453  0.1797 -0.4795 -1.3295
 4341WAT      O29021   0.810   2.802   6.127  0.1930  0.3708  0.5821
 4341WAT     H129022   0.791   2.896   6.129 -1.6543  0.0416  0.4489
 4341WAT     H229023   0.725   2.761   6.110  0.8854 -1.3586  1.0904
 4342WAT      O29024   0.284   0.053   1.498 -0.2942 -0.0181 -0.2988
 4342WAT     H129025   0.342   0.054   1.574  2.9019 -0.0630 -2.5635
 4342WAT     H229026   0.306  -0.027   1.451 -0.4411  1.1352 -2.4710
 4343WAT      O29027   5.431   5.474   1.575  0.1487 -0.9187 -0.4395
 4343WAT     H129028   5.356   5.434   1.620  1.0110 -0.6813  1.2926
 4343WAT     H229029   5.507   5.424   1.605  0.8612 -0.1740 -0.9704
 4344WAT      O29030   2.039   5.290   0.757  0.5864  0.2711  0.4249
 4344WAT     H129031   2.029   5.327   0.669  1.5300 -0.5069 -0.0348
 4344WAT     H229032   2.118   5.333   0.791  2.4869 -2.1590 -0.6248
 4345WAT      O29033   6.032   3.820   6.663  0.1624 -0.1481  0.0247
 4345WAT     H129034   5.991   3.896   6.705  1.4171  0.8286 -0.4121
 4345WAT     H229035   6.042   3.756   6.733 -1.8565 -0.3538  0.1852
 4346WAT      O29036   5.781   1.929   7.787  0.4242 -0.4053  0.8094
 4346WAT     H129037   5.786   1.956   7.878  1.5717  0.8078  0.4074
 4346WAT     H229038   5.690   1.945   7.762  0.4946  0.8218  1.2894
 4347WAT      O29039   0.767   1.797   1.359  0.0121  0.0826 -0.2422
 4347WAT     H129040   0.828   1.724   1.349 -0.0627  0.2385 -2.3047
 4347WAT     H229041   0.821   1.870   1.388  0.4851 -0.2298 -0.3310
 4348WAT      O29042   5.501   3.279   7.550  0.1118 -0.1289  0.4010
 4348WAT     H129043   5.547   3.362   7.539  1.0390 -0.5974  0.6778
 4348WAT     H229044   5.415   3.294   7.510  0.4767  0.7759 -0.0706
 4349WAT      O29045   3.109   1.036   6.425 -0.4334  0.0459 -0.7400
 4349WAT     H129046   3.103   0.941   6.414  0.5936  0.2435 -4.1155
 4349WAT     H229047   3.180   1.048   6.489  0.4611 -1.4580 -1.4008
 4350WAT      O29048   4.746   4.918   6.786  0.4647  0.1971  0.2653
 4350WAT     H129049   4.715   4.877   6.866 -2.1577  1.3492 -0.0652
 4350WAT     H229050   4.833   4.952   6.808  1.9254 -3.5540  1.1415
 4351WAT      O29051   2.695   4.187   0.807 -0.0058  0.0045 -0.3755
 4351WAT     H129052   2.731   4.270   0.774 -0.2151 -0.7802 -2.7473
 4351WAT     H229053   2.767   4.124   0.797 -0.4501 -0.5030 -0.4361
 4352WAT      O29054   3.518   1.363   7.410 -0.4222  0.0144  0.1266
 4352WAT     H129055   3.551   1.290   7.358 -1.5645  0.2704 -1.0074
 4352WAT     H229056   3.576   1.436   7.386  0.2274 -0.3177  0.6619
 4353WAT      O29057   5.621   5.691   7.691  0.1424  0.1056  0.5592
 4353WAT     H129058   5.571   5.609   7.696 -0.4687  0.5421  2.5441
 4353WAT     H229059   5.562   5.752   7.648  0.8278 -0.6039 -1.4960
 4354WAT      O29060   4.327   2.654   0.643  0.5435 -0.1941 -0.0683
 4354WAT     H129061   4.337   2.748   0.650 -1.6830  0.0344  1.2688
 4354WAT     H229062   4.278   2.641   0.562  1.8285 -0.3415 -0.8485
 4355WAT      O29063   2.727   3.462   6.599 -0.1820 -0.4903 -0.0918
 4355WAT     H129064   2.642   3.455   6.643  0.5029 -1.7340  1.1260
 4355WAT     H229065   2.708   3.507   6.517 -1.6821  1.0293  1.0239
 4356WAT      O29066   5.948   1.477   5.827 -0.5020  0.1210  0.0994
 4356WAT     H129067   5.945   1.429   5.744 -1.1650 -0.2057  0.3097
 4356WAT     H229068   5.898   1.556   5.811  1.6247  1.4081 -0.6369
 4357WAT      O29069   2.443   2.738   6.723  0.1320  0.2460  0.5760
 4357WAT     H129070   2.481   2.746   6.636  2.2004 -0.0965  1.3781
 4357WAT     H229071   2.446   2.826   6.759  0.1675  0.2289  0.6178
 4358WAT      O29072   3.269   2.874   6.109 -0.1500 -0.5918  0.5509
 4358WAT     H129073   3.220   2.833   6.038  0.7623 -1.5974  0.4803
 4358WAT     H229074   3.207   2.937   6.147 -1.0675 -0.9290 -0.3248
 4359WAT      O29075   5.875   0.296   7.564  0.3173 -0.0964 -0.1121
 4359WAT     H129076   5.904   0.206   7.553 -0.5651 -0.3837 -0.1117
 4359WAT     H229077   5.953   0.349   7.545  1.2889 -0.8940  1.4751
 4360WAT      O29078   3.317   5.994   1.520  0.0982  0.0280  0.0814
 4360WAT     H129079   3.367   6.026   1.445 -0.3394 -0.2951 -0.3544
 4360WAT     H229080   3.354   6.041   1.595  1.5712 -0.7561 -0.1036
 4361WAT      O29081   4.058   5.713   0.703  0.2106  0.3037  0.1486
 4361WAT     H129082   4.049   5.763   0.622 -0.9432  0.4108  0.3260
 4361WAT     H229083   4.130   5.653   0.686  1.2011  1.5818 -0.2894
 4362WAT      O29084   3.582   5.710   1.700 -0.0931  0.0779 -0.2562
 4362WAT     H129085   3.525   5.716   1.624 -1.2591  0.3408  0.6032
 4362WAT     H229086   3.662   5.670   1.668 -0.7868 -0.3592 -1.4874
 4363WAT      O29087   5.212   5.242   6.493 -0.5962  0.1589 -0.1430
 4363WAT     H129088   5.133   5.189   6.504  0.1892 -1.2364 -0.9078
 4363WAT     H229089   5.187   5.309   6.429 -2.1754  2.0303  2.2720
 4364WAT      O29090   5.506   4.116   7.691  0.3876  0.4353 -0.2607
 4364WAT     H129091   5.541   4.182   7.752  1.4238  0.5929 -1.0067
 4364WAT     H229092   5.426   4.155   7.658 -0.3767  0.2009  1.2557
 4365WAT      O29093   2.144   2.269   0.021  0.0861 -0.2247 -0.5485
 4365WAT     H129094   2.185   2.235  -0.058 -0.9537 -0.4967 -0.9956
 4365WAT     H229095   2.092   2.344  -0.008  0.6924  0.4608  0.0901
 4366WAT      O29096   1.665   3.806   7.693 -0.3830  0.5250 -0.3779
 4366WAT     H129097   1.707   3.734   7.645 -2.2083 -0.5096 -0.5396
 4366WAT     H229098   1.699   3.799   7.782 -0.4599 -0.5140 -0.4146
 4367WAT      O29099   5.119   5.555   6.890  0.0735 -0.0220  0.0272
 4367WAT     H129100   5.144   5.633   6.840  0.8243 -0.6280 -0.5676
 4367WAT     H229101   5.197   5.535   6.942 -0.0455 -0.4825  0.0351
 4368WAT      O29102   4.796   1.284   7.929 -0.1198  0.3843 -0.0637
 4368WAT     H129103   4.706   1.251   7.921 -0.2647  1.2060 -2.6395
 4368WAT     H229104   4.851   1.211   7.899  0.1073 -0.0184  1.2465
 4369WAT      O29105   3.984   0.236   1.404 -0.0716 -0.1097  0.1663
 4369WAT     H129106   4.012   0.187   1.481  0.6332 -1.6660 -1.0299
 4369WAT     H229107   4.043   0.311   1.401  0.7537 -0.7355  0.4177
 4370WAT      O29108   0.464   1.129   6.256  0.2228 -0.1874 -0.1065
 4370WAT     H129109   0.535   1.071   6.283  0.3724  0.6111  1.3501
 4370WAT     H229110   0.472   1.135   6.161 -0.3198 -3.1491 -0.4085
 4371WAT      O29111   4.720   0.620   6.540  0.0630 -0.8373 -0.1481
 4371WAT     H129112   4.739   0.662   6.624  0.2611  2.0634 -1.5389
 4371WAT     H229113   4.805   0.593   6.506  0.2840  0.3412 -0.5531
 4372WAT      O29114   1.811   1.167   5.869 -0.0377 -0.6943  0.2033
 4372WAT     H129115   1.810   1.071   5.862 -1.2199 -0.6932  0.1323
 4372WAT     H229116   1.891   1.193   5.822  0.5121 -1.6548  0.5577
 4373WAT      O29117   1.657   1.967   0.613  1.0508 -0.0589  0.4440
 4373WAT     H129118   1.685   1.878   0.589 -0.7724 -0.6031  0.1805
 4373WAT     H229119   1.562   1.965   0.603  0.9135  1.7262  1.1573
 4374WAT      O29120   0.228   4.368   6.851 -0.5939 -0.2047 -0.1124
 4374WAT     H129121   0.285   4.357   6.774  0.3224  0.6779  0.4146
 4374WAT     H229122   0.166   4.436   6.825  0.7867  1.3526  0.4672
 4375WAT      O29123   2.424   4.094   0.141 -0.1697 -0.1145  0.2266
 4375WAT     H129124   2.461   4.063   0.058  2.7137  0.0169  1.3764
 4375WAT     H229125   2.433   4.189   0.138  1.1267 -0.1792  1.1483
 4376WAT      O29126   3.069   4.147   1.608 -0.0988 -0.2308 -0.3627
 4376WAT     H129127   3.055   4.211   1.678 -1.2508 -0.8062 -0.0403
 4376WAT     H229128   3.161   4.158   1.584  0.2712  0.1283  1.0996
 4377WAT      O29129   2.184   3.404   0.708  0.3966  0.3041  0.0032
 4377WAT     H129130   2.143   3.485   0.737  0.3478 -0.2583  1.5731
 4377WAT     H229131   2.175   3.405   0.613  2.6737  3.3966 -0.3241
 4378WAT      O29132   3.679   2.332   1.338 -0.6505  0.3363 -0.6927
 4378WAT     H129133   3.772   2.310   1.347 -0.5817 -0.0820 -2.1523
 4378WAT     H229134   3.638   2.298   1.418  0.6668  1.9578  0.7379
 4379WAT      O29135   4.719   0.903   1.548 -0.0569 -0.2218 -0.2310
 4379WAT     H129136   4.709   0.992   1.514 -2.9492 -0.9386 -1.5383
 4379WAT     H229137   4.762   0.914   1.633 -0.9500  2.4757 -0.0492
 4380WAT      O29138   4.311   1.710   1.421  0.3967  0.1770 -0.2743
 4380WAT     H129139   4.366   1.768   1.473  0.3094 -0.9504  1.1522
 4380WAT     H229140   4.361   1.693   1.341  0.2243  2.5041 -0.9469
 4381WAT      O29141   2.448   5.975   0.807 -0.3628 -0.1339  0.1739
 4381WAT     H129142   2.442   5.929   0.890 -4.1495  0.0536  0.1492
 4381WAT     H229143   2.456   6.067   0.830 -0.4880 -0.1546  0.2948
 4382WAT      O29144   3.942   1.298   7.004  0.6354  0.3374  0.1815
 4382WAT     H129145   3.930   1.304   7.099 -0.4633  3.1698 -0.0518
 4382WAT     H229146   3.909   1.211   6.981 -2.2120  0.7954  2.0431
 4383WAT      O29147   3.456   0.139   0.099 -0.1331  0.1673  0.6124
 4383WAT     H129148   3.369   0.164   0.132 -0.9225 -1.7074  0.0889
 4383WAT     H229149   3.509   0.127   0.178 -0.7884 -0.1522  1.0156
 4384WAT      O29150   1.159   3.774   0.401  0.0153 -0.6546 -0.2523
 4384WAT     H129151   1.220   3.805   0.468 -0.8523 -1.7090  1.0860
 4384WAT     H229152   1.073   3.781   0.442 -0.5142 -1.6100 -1.1411
 4385WAT      O29153   4.273   3.017   7.747 -0.0241 -0.1275 -0.0078
 4385WAT     H129154   4.247   3.023   7.839 -0.0361 -0.8482  0.0443
 4385WAT     H229155   4.305   2.927   7.738  0.6321  0.1540 -0.5400
 4386WAT      O29156   0.765   4.458   1.599 -0.2922  0.4306  0.4156
 4386WAT     H129157   0.806   4.539   1.626  1.6371 -0.6158  0.8191
 4386WAT     H229158   0.832   4.391   1.613 -2.1085 -1.3895  0.9800
 4387WAT      O29159   4.274   5.578   0.574  0.7534 -0.0489 -0.0804
 4387WAT     H129160   4.324   5.502   0.602  0.7820  0.4282  1.2078
 4387WAT     H229161   4.244   5.555   0.486  0.1327 -1.8672  0.5492
 4388WAT      O29162   4.057   2.021   7.743 -0.1849 -0.1616  0.2339
 4388WAT     H129163   4.105   2.104   7.745  0.3763 -0.4864  0.6173
 4388WAT     H229164   4.010   2.019   7.826 -0.9101  0.1766 -0.1614
 4389WAT      O29165   4.515   1.690   1.758 -0.2843  0.6939  0.0945
 4389WAT     H129166   4.553   1.618   1.808  0.0499 -0.0517 -1.1915
 4389WAT     H229167   4.420   1.677   1.764 -0.2389 -1.2780 -2.0283
 4390WAT      O29168   3.151   5.334   7.823 -0.1072  0.8732 -0.7866
 4390WAT     H129169   3.081   5.275   7.797  1.2802 -2.1865  1.8115
 4390WAT     H229170   3.229   5.299   7.781  0.8612  0.3711  1.2908
 4391WAT      O29171   3.252   3.408   6.077 -0.1497 -0.3755  0.3216
 4391WAT     H129172   3.190   3.434   6.146 -0.1868  1.6800 -0.4168
 4391WAT     H229173   3.334   3.393   6.123 -0.1241  1.1655  0.8189
 4392WAT      O29174   4.156   4.083   7.749 -0.1517  0.3934 -0.2094
 4392WAT     H129175   4.067   4.076   7.784 -1.1631  0.3042 -2.5793
 4392WAT     H229176   4.165   4.175   7.723  0.6603  0.5267  0.5188
 4393WAT      O29177   4.383   5.767   0.990 -0.6863  0.2790  0.2558
 4393WAT     H129178   4.465   5.796   1.030 -1.5358  0.3370  2.0597
 4393WAT     H229179   4.363   5.833   0.924  1.1267 -0.1795 -0.8136
 4394WAT      O29180   2.064   2.372   6.819 -0.4433 -0.5086 -0.1939
 4394WAT     H129181   2.144   2.422   6.805 -0.0717 -0.8787  0.5305
 4394WAT     H229182   2.012   2.426   6.878 -0.8000 -0.2001 -0.7833
 4395WAT      O29183   5.125   0.670   7.386 -0.1570  0.0590  0.3073
 4395WAT     H129184   5.118   0.757   7.425 -0.9458  0.3596 -0.4536
 4395WAT     H229185   5.096   0.682   7.296  2.3529 -0.4401 -0.6578
 4396WAT      O29186   4.360   2.610   1.178 -0.3423  0.2077  0.1145
 4396WAT     H129187   4.298   2.680   1.198  0.3376  1.5309 -1.9860
 4396WAT     H229188   4.367   2.612   1.082 -0.4384 -2.9166 -0.0581
 4397WAT      O29189   5.713   3.779   7.364  0.2178 -0.2217 -0.3226
 4397WAT     H129190   5.638   3.737   7.324  0.9926 -1.0842 -0.9270
 4397WAT     H229191   5.785   3.765   7.302  0.0586  4.1513 -1.8253
 4398WAT      O29192   3.293   2.859   5.797 -0.3029 -0.1766 -0.3020
 4398WAT     H129193   3.254   2.944   5.776  0.1631 -0.4356 -2.4543
 4398WAT     H229194   3.224   2.811   5.842 -0.4790  1.4171  1.2266
 4399WAT      O29195   1.994   5.642   2.411  0.7730  0.3521  0.1783
 4399WAT     H129196   2.017   5.620   2.321 -0.5269  0.5175 -0.2224
 4399WAT     H229197   1.928   5.712   2.402 -1.4228 -1.4660  1.1284
 4400WAT      O29198   2.984   0.974   1.128 -0.3990  0.3888 -0.4018
 4400WAT     H129199   3.067   0.947   1.088 -0.5894 -0.5393 -0.1912
 4400WAT     H229200   2.917   0.931   1.075 -0.8841  2.8235 -1.9074
 4401WAT      O29201   4.225   5.118   7.662 -0.1347  0.0867  0.3847
 4401WAT     H129202   4.173   5.188   7.702 -1.2606 -0.9346  0.7671
 4401WAT     H229203   4.258   5.068   7.737 -0.2711 -0.4504  0.0825
 4402WAT      O29204   5.244   1.619   6.632  0.3515 -0.3513  0.1856
 4402WAT     H129205   5.226   1.682   6.562  1.0402 -0.2587  0.0836
 4402WAT     H229206   5.316   1.658   6.681  0.1589 -0.6193  0.6891
 4403WAT      O29207   0.354   3.285   7.780 -0.1433 -0.1006 -0.2057
 4403WAT     H129208   0.387   3.329   7.858 -0.8632  1.9750 -1.0164
 4403WAT     H229209   0.264   3.260   7.802  0.0356 -0.5848  0.0061
 4404WAT      O29210   2.336   1.571   0.603 -0.2041 -0.0112 -0.2666
 4404WAT     H129211   2.425   1.586   0.572  1.3981 -0.3619  3.5569
 4404WAT     H229212   2.322   1.638   0.669 -2.0724 -1.0645  0.4862
 4405WAT      O29213   0.839   0.918   7.100 -0.1275 -0.5245  0.2579
 4405WAT     H129214   0.928   0.894   7.076 -0.7537 -2.1448 -0.5665
 4405WAT     H229215   0.817   0.859   7.172 -0.4027  0.1372  0.7248
 4406WAT      O29216   0.636   0.251   1.397  0.3494 -0.3436 -0.1039
 4406WAT     H129217   0.662   0.181   1.457  0.2822 -0.2480  0.0363
 4406WAT     H229218   0.621   0.206   1.313  1.1337 -0.3758 -0.2347
 4407WAT      O29219   5.158   1.354   1.293 -0.7258 -0.2047  0.7250
 4407WAT     H129220   5.224   1.295   1.259 -1.8037 -1.2807  0.4269
 4407WAT     H229221   5.075   1.316   1.264 -1.4334  2.0449 -0.4780
 4408WAT      O29222   4.359   0.139   7.770  0.1208  0.3391 -0.3526
 4408WAT     H129223   4.272   0.113   7.738  0.2825  1.4680 -1.8340
 4408WAT     H229224   4.378   0.077   7.840 -1.9036  0.0893  0.0577
 4409WAT      O29225   4.897   6.099   0.770 -0.0268  0.4994  0.2454
 4409WAT     H129226   4.870   6.134   0.855  0.2680  1.9214 -0.2277
 4409WAT     H229227   4.890   6.004   0.780  0.2930  0.6290  1.9502
 4410WAT      O29228   3.013   4.326   0.301 -0.1852 -1.0507 -0.3304
 4410WAT     H129229   3.061   4.408   0.291 -1.2017 -0.4286 -0.1876
 4410WAT     H229230   2.977   4.308   0.214 -0.5241 -0.9906 -0.2049
 4411WAT      O29231   5.889   4.160   0.386 -0.6824 -0.0653  0.3112
 4411WAT     H129232   5.955   4.117   0.332 -1.2235  0.2005 -0.5977
 4411WAT     H229233   5.830   4.090   0.413 -0.7796 -0.1139 -0.0133
 4412WAT      O29234   1.090   4.278   6.404  0.2268  0.1535 -0.4161
 4412WAT     H129235   1.181   4.288   6.378  0.3880  0.0970  0.1155
 4412WAT     H229236   1.046   4.245   6.326  1.1467 -2.2876 -0.0071
 4413WAT      O29237   1.962   1.922   0.437  0.0999 -0.0139  0.0156
 4413WAT     H129238   1.918   1.844   0.403  1.6354 -1.0932  0.3865
 4413WAT     H229239   1.952   1.987   0.368 -1.0636 -0.5889 -0.3812
 4414WAT      O29240   6.135   0.606   1.515  0.0156  0.5519 -0.0557
 4414WAT     H129241   6.044   0.576   1.522  0.4685 -0.7860  0.3285
 4414WAT     H229242   6.147   0.665   1.590 -0.7043  1.2462 -0.4682
 4415WAT      O29243   6.021   5.888   0.266 -0.3019 -0.3239 -0.3906
 4415WAT     H129244   6.059   5.802   0.247  0.4096  0.1471 -1.1773
 4415WAT     H229245   6.001   5.924   0.180  0.9645  0.9631 -0.1870
 4416WAT      O29246   3.348   2.249   6.810  0.0053 -0.4428  0.2334
 4416WAT     H129247   3.351   2.324   6.869 -2.4686 -0.0644 -0.0099
 4416WAT     H229248   3.287   2.188   6.852  0.7143 -1.6108 -0.3713
 4417WAT      O29249   5.648   5.621   1.450 -0.2731  0.1286 -0.3548
 4417WAT     H129250   5.675   5.656   1.535  0.0836  0.6037 -0.6563
 4417WAT     H229251   5.565   5.577   1.467  0.3546 -0.7899  0.4718
 4418WAT      O29252   3.642   1.709   0.932 -0.4056 -0.1485 -0.5501
 4418WAT     H129253   3.624   1.667   1.016  0.2558 -0.3670 -0.5080
 4418WAT     H229254   3.726   1.671   0.905  0.1454  1.0489 -0.5691
 4419WAT      O29255   3.638   0.049   1.586 -0.2047 -0.1455 -0.3390
 4419WAT     H129256   3.610   0.114   1.521 -2.4024 -0.0809  0.5772
 4419WAT     H229257   3.688  -0.015   1.536 -0.1744  0.9226 -1.7304
 4420WAT      O29258   2.825   3.912   0.696 -0.2919  0.1559  0.4928
 4420WAT     H129259   2.869   3.982   0.648  0.2903  0.2617  1.1632
 4420WAT     H229260   2.895   3.853   0.723 -0.1916  1.4338  3.4242
 4421WAT      O29261   6.073   2.725   0.002 -0.2144 -0.0803  0.3107
 4421WAT     H129262   5.993   2.777   0.006 -0.1876  0.1610 -1.4130
 4421WAT     H229263   6.143   2.789   0.014 -0.2107  0.1623 -0.9102
 4422WAT      O29264   0.564   3.689   5.511 -0.4682  0.1144  0.0145
 4422WAT     H129265   0.568   3.720   5.421  3.5354  1.1888  0.3691
 4422WAT     H229266   0.545   3.768   5.562  0.5776  0.1835  0.3064
 4423WAT      O29267   3.248   4.142   7.389  0.7002  0.0955 -0.0859
 4423WAT     H129268   3.211   4.158   7.476 -0.8894 -1.0152 -0.5245
 4423WAT     H229269   3.322   4.084   7.405 -0.4643 -1.3161  0.4331
 4424WAT      O29270   4.881   4.242   6.959  0.4980  0.1711 -0.2560
 4424WAT     H129271   4.787   4.242   6.977  0.4265 -0.0803 -0.6245
 4424WAT     H229272   4.917   4.176   7.018  0.4052  0.0707 -0.3115
 4425WAT      O29273   4.367   3.318   6.728  0.1533 -0.2677  0.3424
 4425WAT     H129274   4.278   3.350   6.733  0.3199  0.1390  0.8083
 4425WAT     H229275   4.412   3.358   6.803  0.3994 -1.4766  0.8784
 4426WAT      O29276   6.016   2.198   1.821 -0.8566  0.6821 -0.5361
 4426WAT     H129277   6.074   2.225   1.893 -1.0501 -0.9872  0.3211
 4426WAT     H229278   5.929   2.194   1.861 -0.7754 -1.5512 -0.4208
 4427WAT      O29279   0.051   3.148   6.373  0.1779  0.0874 -0.0308
 4427WAT     H129280   0.027   3.065   6.331  1.2982  0.7757 -2.1675
 4427WAT     H229281  -0.010   3.156   6.446 -2.4416 -0.8167 -1.9627
 4428WAT      O29282   3.364   2.240   0.148  0.3035  0.0184 -0.0849
 4428WAT     H129283   3.360   2.163   0.091 -0.2504  0.4012 -0.5763
 4428WAT     H229284   3.346   2.206   0.235 -0.8035 -0.2893 -0.4223
 4429WAT      O29285   4.232   3.633   6.943 -0.1081 -0.0819  0.0854
 4429WAT     H129286   4.239   3.695   7.016 -1.2903  0.0543  0.0938
 4429WAT     H229287   4.297   3.565   6.963 -0.9580 -0.4730  1.6971
 4430WAT      O29288   3.116   2.456   1.288  0.1372 -0.1198 -0.4444
 4430WAT     H129289   3.171   2.434   1.363 -0.4258 -2.8520 -0.7117
 4430WAT     H229290   3.032   2.479   1.326  0.0651 -0.7826 -0.1852
 4431WAT      O29291   4.744   5.382   0.657  0.3257 -0.3872  0.5290
 4431WAT     H129292   4.685   5.319   0.614  1.1973 -0.2053 -1.0318
 4431WAT     H229293   4.686   5.441   0.704 -0.6415 -1.1056  0.2845
 4432WAT      O29294   1.370   1.953   0.743  0.1242 -0.6709  0.0463
 4432WAT     H129295   1.290   1.902   0.748 -0.8988  0.8617  0.1605
 4432WAT     H229296   1.434   1.904   0.795 -0.5010 -2.2982 -0.6637
 4433WAT      O29297   4.557   5.774   1.418 -0.5531 -0.8259  0.3180
 4433WAT     H129298   4.611   5.796   1.494 -1.7748  1.6696  0.5782
 4433WAT     H229299   4.493   5.711   1.452 -0.7216 -0.1765  1.2642
 4434WAT      O29300   6.008   2.911   5.345 -0.2142 -0.1467  0.2263
 4434WAT     H129301   6.045   2.856   5.415  1.3012  0.8509  0.2734
 4434WAT     H229302   6.083   2.930   5.288 -0.7324  1.6169  0.0676
 4435WAT      O29303   1.341   5.026   7.893  0.3356  0.9359  0.0020
 4435WAT     H129304   1.420   5.041   7.841 -0.3763 -0.3428 -1.5311
 4435WAT     H229305   1.350   5.085   7.968  1.9503  2.0066 -0.9766
 4436WAT      O29306   3.138   0.659   7.426 -0.3942  0.3564  0.0081
 4436WAT     H129307   3.171   0.599   7.359 -0.1557  2.8251 -2.2566
 4436WAT     H229308   3.195   0.644   7.501 -0.6631 -2.5147 -0.2561
 4437WAT      O29309   1.037   2.196   0.209 -0.6228  0.6191  0.3426
 4437WAT     H129310   0.951   2.212   0.248 -1.7010 -1.6639 -0.8529
 4437WAT     H229311   1.025   2.213   0.116 -0.1504 -0.8367 -0.0137
 4438WAT      O29312   3.614   0.991   5.804 -0.0509 -0.8556  0.2784
 4438WAT     H129313   3.623   0.898   5.825  1.9245 -0.6792  0.3633
 4438WAT     H229314   3.661   1.036   5.875 -0.1387  0.1485 -0.2888
 4439WAT      O29315   2.382   4.152   7.598 -0.2160  0.2612  0.5412
 4439WAT     H129316   2.450   4.171   7.662 -0.5046 -0.6652  1.1548
 4439WAT     H229317   2.301   4.181   7.639 -0.1273  2.2763 -0.5924
 4440WAT      O29318   5.202   1.170   1.801  0.1170  0.2490 -0.4285
 4440WAT     H129319   5.138   1.121   1.852  0.2263  0.4099 -0.1318
 4440WAT     H229320   5.258   1.212   1.867  0.1615  0.5916 -0.6809
 4441WAT      O29321   0.187   2.632   5.820 -0.4726 -0.4985  0.5154
 4441WAT     H129322   0.232   2.663   5.741  2.0640 -1.0528  1.6355
 4441WAT     H229323   0.123   2.568   5.788 -0.4085  0.2320 -1.1661
 4442WAT      O29324   2.728   6.078   7.390 -0.5365  0.3958  0.0994
 4442WAT     H129325   2.663   6.109   7.327 -1.2898 -0.7257  0.2967
 4442WAT     H229326   2.680   6.075   7.473  0.0780  0.5815  0.4646
 4443WAT      O29327   4.069   2.190   1.028  0.6008 -0.1764 -0.1869
 4443WAT     H129328   4.013   2.118   1.000 -0.2277 -0.3872  1.8752
 4443WAT     H229329   4.157   2.151   1.033  0.7626 -0.1747 -2.1404
 4444WAT      O29330   0.491   5.414   0.014 -0.0670  0.6704  0.0857
 4444WAT     H129331   0.525   5.325   0.025 -2.6510 -0.1135  3.7465
 4444WAT     H229332   0.565   5.470   0.038  1.2155 -0.4857 -0.9513
 4445WAT      O29333   2.566   5.401   1.274  0.6171  0.0249  0.2308
 4445WAT     H129334   2.519   5.456   1.338  1.5194  2.1006 -0.8041
 4445WAT     H229335   2.502   5.386   1.205  1.1502  2.3276 -0.8770
 4446WAT      O29336   0.717   4.100   2.158 -0.4237  0.2165 -0.4112
 4446WAT     H129337   0.756   4.019   2.192 -0.4789  0.0117 -0.8284
 4446WAT     H229338   0.642   4.116   2.216 -1.7422 -1.2379 -1.5953
 4447WAT      O29339   4.862   5.464   1.011 -0.0938 -0.7441  0.5104
 4447WAT     H129340   4.834   5.411   1.086 -4.3841 -1.6131 -1.3674
 4447WAT     H229341   4.923   5.408   0.963  0.8888 -1.0880  2.1060
 4448WAT      O29342   2.777   1.248   0.552 -0.8864  0.0864 -0.3769
 4448WAT     H129343   2.710   1.262   0.485  0.6048  0.5100 -1.8496
 4448WAT     H229344   2.846   1.201   0.507 -0.4798 -1.0182  1.3075
 4449WAT      O29345   1.938   0.997   7.917  0.4178 -0.0275 -0.1994
 4449WAT     H129346   1.879   0.979   7.990 -0.1179 -0.9640 -0.8401
 4449WAT     H229347   1.986   0.915   7.903  2.4818  0.9211  0.8088
 4450WAT      O29348   1.604   2.474   1.654  0.5914 -0.1481 -0.9510
 4450WAT     H129349   1.616   2.403   1.591  1.7363 -1.8460  1.0383
 4450WAT     H229350   1.691   2.486   1.692  0.1189  1.4152 -0.2812
 4451WAT      O29351   3.724   1.174   0.578 -0.5588 -0.6471  0.0254
 4451WAT     H129352   3.694   1.259   0.546 -0.7269 -0.2462  1.1957
 4451WAT     H229353   3.771   1.135   0.504 -1.7636 -0.1882 -1.0036
 4452WAT      O29354   2.508   3.441   5.777  0.4544 -0.9933 -0.1011
 4452WAT     H129355   2.497   3.525   5.821  2.0386 -1.9010  2.2494
 4452WAT     H229356   2.601   3.436   5.756 -0.0684 -1.0735 -2.7747
 4453WAT      O29357   2.364   3.336   1.354 -1.1003  0.1815 -0.3686
 4453WAT     H129358   2.291   3.395   1.372 -0.2167  1.0042  0.7290
 4453WAT     H229359   2.436   3.394   1.328 -1.0627 -0.6775 -2.3322
 4454WAT      O29360   0.989   2.229   1.056 -0.1408  0.5838  0.5420
 4454WAT     H129361   0.983   2.316   1.016 -0.0656  0.0063 -0.7771
 4454WAT     H229362   0.934   2.235   1.134 -2.3705  1.0558 -0.9721
 4455WAT      O29363   0.798   5.629   0.399 -0.2141 -0.0832  0.9178
 4455WAT     H129364   0.882   5.651   0.360 -0.2066 -1.4548  0.0585
 4455WAT     H229365   0.780   5.699   0.461  0.3151  1.6180 -0.7606
 4456WAT      O29366   0.283   2.011   1.441 -0.1879  0.2228 -0.5898
 4456WAT     H129367   0.355   1.969   1.490 -0.8283  0.1829  0.3375
 4456WAT     H229368   0.226   1.939   1.415 -1.1301  0.4413  0.7426
 4457WAT      O29369   5.191   6.057   7.505 -0.4339  0.0899  0.5914
 4457WAT     H129370   5.231   6.108   7.576  0.5193  0.9996 -0.5578
 4457WAT     H229371   5.147   5.985   7.550  0.2817  0.5359  2.0934
 4458WAT      O29372   5.192   3.953   5.917  0.1986 -0.0625 -0.6780
 4458WAT     H129373   5.159   3.984   5.832  2.1540 -1.0201 -1.8704
 4458WAT     H229374   5.136   3.878   5.937  0.1436 -0.2569 -1.4945
 4459WAT      O29375   4.279   0.216   6.155 -0.6888  0.1373 -0.4910
 4459WAT     H129376   4.272   0.191   6.247  1.1838 -1.4282 -0.7163
 4459WAT     H229377   4.220   0.157   6.109 -2.3950  1.5745 -0.2607
 4460WAT      O29378   0.446   0.758   6.235  0.2398 -0.1153 -0.6899
 4460WAT     H129379   0.486   0.804   6.308  0.3953  0.2152 -0.9798
 4460WAT     H229380   0.519   0.714   6.191  0.1435 -0.3415 -0.6251
 4461WAT      O29381   4.974   1.375   6.351  0.0125  0.5752 -0.5176
 4461WAT     H129382   4.928   1.369   6.268  0.6063  1.5871 -0.9357
 4461WAT     H229383   4.991   1.468   6.363  2.3042  0.2254 -0.5946
 4462WAT      O29384   3.899   5.655   6.544 -0.1703  0.6739 -0.2364
 4462WAT     H129385   3.871   5.666   6.453 -0.3029  2.6581 -0.0074
 4462WAT     H229386   3.983   5.610   6.537  0.9017  2.7028 -1.5408
 4463WAT      O29387   2.511   0.523   0.072  0.1911 -0.5360  0.5672
 4463WAT     H129388   2.597   0.493   0.101  1.6326  1.5158 -1.2548
 4463WAT     H229389   2.478   0.575   0.146  0.2476 -1.7283  1.4656
 4464WAT      O29390   2.526   5.256   6.785  0.9003  0.1405  0.1245
 4464WAT     H129391   2.470   5.180   6.801 -0.8606  1.0008 -1.4592
 4464WAT     H229392   2.595   5.223   6.728  0.0769 -0.3069 -0.6614
 4465WAT      O29393   0.002   5.661   0.183 -0.2479  0.3925 -0.2738
 4465WAT     H129394   0.088   5.658   0.142 -0.5035  0.4054 -0.8180
 4465WAT     H229395  -0.057   5.623   0.118 -0.4913 -0.6086  0.5078
 4466WAT      O29396   1.084   1.501   5.988 -0.2399 -0.1940  0.2043
 4466WAT     H129397   1.049   1.431   5.933 -0.1477 -0.3356  0.3244
 4466WAT     H229398   1.101   1.573   5.927 -2.3990  0.5325  0.3976
 4467WAT      O29399   5.600   5.874   6.178 -0.0727  0.0449 -0.8466
 4467WAT     H129400   5.570   5.947   6.123 -2.6559 -0.0505  0.2931
 4467WAT     H229401   5.546   5.800   6.150  1.5629 -1.1216 -1.0446
 4468WAT      O29402   0.054   3.415   6.383 -0.6841 -0.6918  0.6777
 4468WAT     H129403   0.055   3.320   6.374  0.2228 -0.4633 -2.9004
 4468WAT     H229404  -0.015   3.444   6.323  2.1495  1.0474 -2.0022
 4469WAT      O29405   3.153   2.117   5.758 -0.0186 -0.3454 -0.0357
 4469WAT     H129406   3.173   2.025   5.740 -0.2585 -0.3338 -0.3735
 4469WAT     H229407   3.072   2.133   5.709 -1.6290 -0.7643  2.3085
 4470WAT      O29408   3.760   2.146   0.840 -0.0863  0.3907 -0.2649
 4470WAT     H129409   3.666   2.164   0.844  0.1099  1.5458 -0.4464
 4470WAT     H229410   3.775   2.081   0.908 -0.9435  0.5497  0.0870
 4471WAT      O29411   0.240   2.145   7.032 -0.2199  0.1861 -0.2930
 4471WAT     H129412   0.239   2.049   7.039  0.4747  0.1706 -0.2719
 4471WAT     H229413   0.317   2.163   6.977 -0.8851  0.6910 -1.0733
 4472WAT      O29414   0.632   2.727   0.218  0.6262 -0.6059 -0.5337
 4472WAT     H129415   0.556   2.696   0.169  1.0523 -1.6127 -0.5906
 4472WAT     H229416   0.706   2.711   0.158  0.7925  1.2149 -0.8473
 4473WAT      O29417   5.202   5.114   6.877  0.2221  0.2754  0.0749
 4473WAT     H129418   5.170   5.051   6.942 -1.4606  1.1972  0.1887
 4473WAT     H229419   5.123   5.141   6.829  1.0754  1.4940 -0.6888
 4474WAT      O29420   2.422   1.885   5.444 -0.6665 -0.3447 -0.3024
 4474WAT     H129421   2.464   1.968   5.424  0.4690 -0.9206 -0.3837
 4474WAT     H229422   2.331   1.908   5.465 -0.1524  1.0083  0.5460
 4475WAT      O29423   4.468   6.021   6.284 -0.6650  0.1141  0.8716
 4475WAT     H129424   4.486   5.935   6.245  0.0803  0.0739  1.2974
 4475WAT     H229425   4.547   6.072   6.268 -1.1107  0.7353  0.6087
 4476WAT      O29426   0.130   5.112   7.472  0.6402  0.1839  0.0479
 4476WAT     H129427   0.116   5.206   7.469  0.5073  0.2036 -3.8779
 4476WAT     H229428   0.185   5.098   7.550 -1.6579  2.9944  2.4115
 4477WAT      O29429   3.749   5.028   6.989 -0.1128  0.2932  0.4042
 4477WAT     H129430   3.719   5.046   6.899  0.3192  1.2567  0.4436
 4477WAT     H229431   3.812   5.097   7.008  0.5500 -0.4827  1.1009
 4478WAT      O29432   5.278   4.034   0.821 -0.1207  0.1600 -0.0645
 4478WAT     H129433   5.194   4.030   0.776 -0.6314  0.6603  0.8149
 4478WAT     H229434   5.343   4.024   0.751 -0.8778  1.3744 -0.9907
 4479WAT      O29435   2.615   2.875   0.751  0.1922 -0.6992 -0.1838
 4479WAT     H129436   2.595   2.816   0.823 -2.2193  0.3502  0.1140
 4479WAT     H229437   2.581   2.830   0.673  0.4970 -0.7166 -0.3100
 4480WAT      O29438   0.638   5.725   6.797 -0.1922  0.7383 -0.2410
 4480WAT     H129439   0.727   5.733   6.832 -0.4235  1.1169  0.2760
 4480WAT     H229440   0.650   5.726   6.702  0.1054  4.7618 -0.3342
 4481WAT      O29441   4.495   2.821   7.225 -0.1873  0.2004 -0.3966
 4481WAT     H129442   4.439   2.780   7.158 -1.8114  0.7954  0.5354
 4481WAT     H229443   4.578   2.774   7.219 -0.3986 -0.0075 -2.5821
 4482WAT      O29444   5.795   2.557   0.223 -0.0744 -0.3335  0.0631
 4482WAT     H129445   5.778   2.523   0.136 -0.6610 -1.9277  0.7617
 4482WAT     H229446   5.882   2.524   0.246 -0.1556 -0.3912  0.2927
 4483WAT      O29447   3.208   3.817   6.772  0.2110 -0.1503 -1.2558
 4483WAT     H129448   3.202   3.840   6.865  0.0613 -0.7268 -1.1165
 4483WAT     H229449   3.302   3.814   6.754  0.2304  0.6494 -1.3028
 4484WAT      O29450   3.805   5.952   0.641  0.1209 -0.3804  0.1523
 4484WAT     H129451   3.817   6.047   0.648  0.7470 -0.5477  2.6021
 4484WAT     H229452   3.712   5.939   0.660  0.3082 -0.3128  1.1808
 4485WAT      O29453   6.067   3.802   1.398  0.3306  0.1229  1.0434
 4485WAT     H129454   5.975   3.780   1.386  0.6534 -1.6065  1.3940
 4485WAT     H229455   6.067   3.890   1.435 -1.2110 -0.1026  1.6294
 4486WAT      O29456   0.101   3.729   1.076  0.1646  0.2082  0.0603
 4486WAT     H129457   0.140   3.643   1.093 -0.7665 -0.0693  0.8539
 4486WAT     H229458   0.016   3.710   1.038 -0.7201  0.7229  1.6800
 4487WAT      O29459   0.415   3.245   1.909 -0.3783 -0.0873  0.0326
 4487WAT     H129460   0.488   3.304   1.928 -1.3643  0.8918  0.8915
 4487WAT     H229461   0.397   3.201   1.993 -0.0221 -1.2042 -0.4608
 4488WAT      O29462   3.931   2.941   6.249  0.3338  0.0142 -0.0168
 4488WAT     H129463   3.922   3.035   6.262 -0.4353  0.1866 -1.5244
 4488WAT     H229464   3.841   2.908   6.252  0.7358 -1.1804  3.3877
 4489WAT      O29465   3.497   4.354   7.195  0.2102  0.0199  0.0269
 4489WAT     H129466   3.499   4.391   7.106 -0.4277 -0.1705 -0.0675
 4489WAT     H229467   3.584   4.374   7.230  0.2291  0.7110 -0.3895
 4490WAT      O29468   0.316   2.897   1.584 -0.2157 -0.1795 -0.5166
 4490WAT     H129469   0.255   2.950   1.532  0.3641  0.3562 -0.6666
 4490WAT     H229470   0.363   2.961   1.638  0.6290 -0.5247 -0.8356
 4491WAT      O29471   0.764   5.581   2.466  0.4126  0.0437  0.5421
 4491WAT     H129472   0.761   5.528   2.386  0.2387 -0.9870  1.2097
 4491WAT     H229473   0.812   5.527   2.528 -2.0725 -0.5682  2.0903
 4492WAT      O29474   5.676   4.060   6.302 -0.2759 -0.5019 -0.4306
 4492WAT     H129475   5.696   4.085   6.212  0.9689 -0.4712 -0.1669
 4492WAT     H229476   5.758   4.073   6.349 -0.8657 -0.6598  0.6835
 4493WAT      O29477   3.969   3.249   7.880  0.0408 -0.2112  0.1541
 4493WAT     H129478   4.040   3.310   7.858 -0.5251  0.5165  0.2820
 4493WAT     H229479   3.889   3.298   7.859 -0.4313 -0.8650  0.3999
 4494WAT      O29480   5.297   0.300   6.979  0.2464 -0.3701 -0.2879
 4494WAT     H129481   5.285   0.394   6.974 -1.2625 -0.6041 -3.1722
 4494WAT     H229482   5.315   0.282   7.071 -0.4691  2.5888  0.5066
 4495WAT      O29483   0.885   4.462   6.951 -0.6357  0.0252 -0.2691
 4495WAT     H129484   0.883   4.421   7.037  1.3243 -1.7887 -0.9845
 4495WAT     H229485   0.978   4.480   6.935 -0.9345  0.1662 -2.0704
 4496WAT      O29486   0.007   2.600   1.796  0.4150  0.4221  0.1625
 4496WAT     H129487   0.054   2.682   1.816  0.7490 -0.2407  2.3759
 4496WAT     H229488  -0.028   2.572   1.880  0.6096 -1.9047 -0.4735
 4497WAT      O29489   0.149   3.726   6.366 -0.4404 -0.5774  0.1907
 4497WAT     H129490   0.145   3.706   6.460 -0.4414 -2.1887 -0.1212
 4497WAT     H229491   0.068   3.690   6.330 -0.3530 -0.1397 -0.4665
 4498WAT      O29492   4.278   5.342   6.255  0.2358 -0.0267 -0.4475
 4498WAT     H129493   4.333   5.268   6.230  1.4411  1.5448 -2.7840
 4498WAT     H229494   4.332   5.419   6.240 -1.8612  1.4789 -0.7000
 4499WAT      O29495   3.414   5.716   1.473  0.1342  0.2433 -0.3823
 4499WAT     H129496   3.349   5.659   1.433 -0.2279  0.6906 -0.4405
 4499WAT     H229497   3.368   5.799   1.487  0.7383  0.6135 -0.5629
 4500WAT      O29498   4.225   1.002   7.039  0.1311  0.2399 -0.3280
 4500WAT     H129499   4.256   1.078   6.990  0.3292  0.0515 -0.5031
 4500WAT     H229500   4.282   0.998   7.116  0.7306 -0.2551 -0.7784
 4501WAT      O29501   2.226   5.575   7.028 -0.0218  0.0253 -0.4822
 4501WAT     H129502   2.201   5.648   6.972 -0.3139  0.3609  0.0739
 4501WAT     H229503   2.180   5.591   7.111  0.5510 -0.3497 -0.0753
 4502WAT      O29504   4.886   5.208   1.577  0.4156  0.1045 -0.0485
 4502WAT     H129505   4.834   5.287   1.569  1.2829  0.9076  1.5857
 4502WAT     H229506   4.829   5.146   1.623  0.9746  1.1736  2.2622
 4503WAT      O29507   1.943   2.107   0.244  0.3042 -0.3216 -0.4439
 4503WAT     H129508   2.020   2.155   0.212  0.4811 -0.7512 -0.6774
 4503WAT     H229509   1.901   2.074   0.165 -1.4527  1.8600 -0.4997
 4504WAT      O29510   5.011   1.678   7.212 -0.2951 -0.4222  0.4094
 4504WAT     H129511   5.017   1.770   7.184  0.2395  0.1437  2.2403
 4504WAT     H229512   5.083   1.634   7.166 -0.8854 -0.0787 -0.9108
 4505WAT      O29513   0.747   2.015   1.040  0.0010  0.2362 -0.6582
 4505WAT     H129514   0.777   2.042   0.954  0.4513 -0.0187 -0.5871
 4505WAT     H229515   0.824   1.975   1.081 -0.4054 -0.3297 -0.4267
 4506WAT      O29516   2.547   2.552   1.663 -0.6332 -0.1848 -0.3613
 4506WAT     H129517   2.595   2.589   1.736 -0.3661 -0.2868 -0.4863
 4506WAT     H229518   2.513   2.628   1.615 -1.2975 -0.1176  0.1849
 4507WAT      O29519   5.648   3.138   1.887  0.0532 -0.6634  0.9862
 4507WAT     H129520   5.616   3.087   1.962 -2.2624 -0.8078  0.0090
 4507WAT     H229521   5.652   3.074   1.815 -0.2694 -0.0304  0.3891
 4508WAT      O29522   1.852   5.232   1.426 -0.3053  0.0257 -0.3134
 4508WAT     H129523   1.782   5.293   1.403 -0.6497  0.0401  0.6850
 4508WAT     H229524   1.807   5.161   1.473  0.1576 -0.7501 -1.0074
 4509WAT      O29525   4.506   3.608   5.377  0.0849  0.3432 -0.0698
 4509WAT     H129526   4.529   3.544   5.445  0.9799 -0.4146 -1.0460
 4509WAT     H229527   4.477   3.684   5.426 -0.4550 -0.5984  1.1483
 4510WAT      O29528   1.182   4.093   0.169 -0.0170  0.0333  0.1371
 4510WAT     H129529   1.124   4.022   0.195 -0.2451  0.2098  0.1090
 4510WAT     H229530   1.252   4.050   0.120  0.7032 -0.3769  1.4862
 4511WAT      O29531   1.424   5.824   7.116  0.4813  0.1279 -0.0020
 4511WAT     H129532   1.465   5.851   7.034 -1.6766  1.0155 -0.8698
 4511WAT     H229533   1.364   5.753   7.091  0.2902 -0.0560  0.9253
 4512WAT      O29534   5.643   2.983   0.432 -0.2246  0.1437 -0.6440
 4512WAT     H129535   5.642   3.034   0.351  1.4852  0.7773 -0.3028
 4512WAT     H229536   5.709   2.916   0.418  0.2619  0.4090  0.3031
 4513WAT      O29537   0.311   1.836   6.501  0.5817  0.4586  0.1301
 4513WAT     H129538   0.389   1.799   6.461  0.5243 -0.2211  0.6346
 4513WAT     H229539   0.338   1.924   6.529  1.2378  0.1367  0.5196
 4514WAT      O29540   1.510   2.049   2.012 -0.6282 -0.1670 -0.0071
 4514WAT     H129541   1.588   2.086   1.972 -1.7284  1.3076 -0.9038
 4514WAT     H229542   1.459   2.125   2.040 -1.1756 -1.1171  1.7211
 4515WAT      O29543   0.684   1.162   7.535 -0.7033  0.6930  0.2119
 4515WAT     H129544   0.684   1.073   7.501  0.7976  1.2837 -1.5174
 4515WAT     H229545   0.610   1.166   7.595 -0.8851 -1.6579  0.2055
 4516WAT      O29546   0.933   4.136   6.565  0.3856 -0.0787  0.1987
 4516WAT     H129547   0.896   4.205   6.621 -0.7611 -0.1875 -0.3754
 4516WAT     H229548   1.001   4.181   6.514 -1.1935  1.0109 -1.0853
 4517WAT      O29549   2.163   1.863   6.812  0.4603 -0.2045 -0.0835
 4517WAT     H129550   2.153   1.958   6.822 -1.3710 -0.1960 -1.4203
 4517WAT     H229551   2.158   1.849   6.717 -1.6767 -1.8178  0.1885
 4518WAT      O29552   5.575   3.158   7.203 -0.2800  0.6127 -0.1641
 4518WAT     H129553   5.537   3.243   7.227 -2.4712  0.0678 -1.4077
 4518WAT     H229554   5.512   3.094   7.235  0.5014 -0.4536 -0.7196
 4519WAT      O29555   0.052   0.695   1.924 -0.0857 -0.0838 -0.0055
 4519WAT     H129556   0.039   0.765   1.988 -1.7081 -1.0581  0.7832
 4519WAT     H229557   0.004   0.724   1.846 -1.6313 -0.7257  0.6666
 4520WAT      O29558   5.090   0.512   7.867  0.5780  0.4479 -0.5322
 4520WAT     H129559   5.133   0.549   7.944 -1.1798 -0.6445  1.0592
 4520WAT     H229560   5.142   0.543   7.793  2.4424  1.3826  1.0915
 4521WAT      O29561   1.467   4.769   5.997  0.0814 -0.4210  0.0796
 4521WAT     H129562   1.559   4.792   5.987 -0.3422  1.0247 -0.8117
 4521WAT     H229563   1.420   4.835   5.947 -1.6038  0.3763  2.5138
 4522WAT      O29564   5.986   1.549   6.083  0.2087  0.7122 -0.0794
 4522WAT     H129565   5.940   1.632   6.098 -1.8138 -0.4915  0.7652
 4522WAT     H229566   5.959   1.523   5.995 -1.5585 -0.4129  0.7290
 4523WAT      O29567   0.646   6.024   6.208  0.1910  0.4516  0.2352
 4523WAT     H129568   0.612   6.114   6.209  1.1702  0.9482 -2.5226
 4523WAT     H229569   0.737   6.033   6.181  0.2440 -1.3950 -0.3384
 4524WAT      O29570   1.725   3.377   7.300 -0.1866  0.1036 -0.3093
 4524WAT     H129571   1.721   3.384   7.205 -1.0183 -0.1462 -0.2985
 4524WAT     H229572   1.636   3.395   7.330  0.2157  0.8718  0.4762
 4525WAT      O29573   0.560   1.862   6.826 -0.1761 -0.1611 -0.0778
 4525WAT     H129574   0.563   1.926   6.898  1.2760 -0.9475  0.6100
 4525WAT     H229575   0.510   1.789   6.861 -2.1577  0.6965 -0.9930
 4526WAT      O29576   3.718   3.360   0.764  0.5475 -0.2632  0.5774
 4526WAT     H129577   3.718   3.301   0.688 -1.4177 -1.0005  1.0914
 4526WAT     H229578   3.804   3.403   0.761  1.3163 -1.7827 -0.8748
 4527WAT      O29579   4.614   2.156   1.314 -0.3720  0.0913  0.0859
 4527WAT     H129580   4.667   2.165   1.235 -1.5129 -1.0980 -0.8530
 4527WAT     H229581   4.652   2.081   1.359  0.3568  0.8438  0.7737
 4528WAT      O29582   2.645   4.196   7.703  0.4995  0.0420 -0.5309
 4528WAT     H129583   2.731   4.194   7.660  1.0301 -0.3984  0.4905
 4528WAT     H229584   2.662   4.239   7.787 -0.4334  0.5779 -0.6125
 4529WAT      O29585   0.630   4.275   0.443  0.6119 -0.5471  0.0364
 4529WAT     H129586   0.610   4.203   0.382  0.3326  0.5687 -1.2416
 4529WAT     H229587   0.643   4.232   0.527  1.2743 -2.1801 -0.8558
 4530WAT      O29588   0.991   5.809   5.546  0.1403 -0.8410 -0.2437
 4530WAT     H129589   1.076   5.853   5.556 -1.2254  1.9973 -0.3197
 4530WAT     H229590   1.014   5.723   5.508  2.8189  0.8929 -3.0719
 4531WAT      O29591   2.100   0.485   1.344  0.4499  0.0039 -0.3821
 4531WAT     H129592   2.056   0.544   1.404  1.4243  1.9270 -1.4700
 4531WAT     H229593   2.037   0.473   1.272  0.8423  1.0244 -0.9127
 4532WAT      O29594   1.332   0.883   1.069 -0.4758 -0.2848 -0.5049
 4532WAT     H129595   1.243   0.914   1.083 -0.5646 -0.8239  0.2473
 4532WAT     H229596   1.381   0.915   1.145 -0.6840 -2.2939  0.5669
 4533WAT      O29597   4.568   4.762   7.710  0.0629  0.4096 -0.3669
 4533WAT     H129598   4.660   4.782   7.689  1.1032 -2.3957  0.9491
 4533WAT     H229599   4.524   4.764   7.626  2.3358 -2.4655 -1.8155
 4534WAT      O29600   1.497   4.448   6.684 -0.2809 -0.1549 -0.6536
 4534WAT     H129601   1.418   4.467   6.733 -0.5365 -3.0008  0.2264
 4534WAT     H229602   1.568   4.482   6.738 -0.7270 -0.7971  0.3601
 4535WAT      O29603   3.598   2.209   1.552  0.1950  0.2234 -0.4510
 4535WAT     H129604   3.619   2.127   1.598 -0.0675  1.1926  1.5122
 4535WAT     H229605   3.517   2.239   1.593  0.6820  1.8322 -0.6226
 4536WAT      O29606   4.602   3.260   7.523  0.0782 -0.3688  0.7248
 4536WAT     H129607   4.683   3.287   7.480  0.1465  0.4781  1.3554
 4536WAT     H229608   4.571   3.186   7.471  0.6691  0.0027 -0.1956
 4537WAT      O29609   1.962   5.008   6.782 -0.1016  0.3008 -0.1509
 4537WAT     H129610   1.978   4.921   6.746 -0.9420  0.0942 -0.0570
 4537WAT     H229611   2.026   5.018   6.852  1.1357  0.4533 -1.2536
 4538WAT      O29612   1.926   3.380   6.013  0.0754 -0.3733  0.0460
 4538WAT     H129613   2.008   3.428   6.000  0.4751 -1.4694 -2.0279
 4538WAT     H229614   1.929   3.310   5.947 -1.7218 -1.5522  1.1190
 4539WAT      O29615   4.278   2.550   0.381 -0.2146  0.8092 -0.4404
 4539WAT     H129616   4.228   2.471   0.361  0.4980 -0.0651  1.0819
 4539WAT     H229617   4.368   2.528   0.356 -0.3138  1.8789 -1.8708
 4540WAT      O29618   5.485   0.966   0.960  0.2514  0.7974  0.1221
 4540WAT     H129619   5.463   1.015   0.881 -0.0205 -1.0154 -0.9736
 4540WAT     H229620   5.580   0.961   0.961  0.2444  0.5611 -0.2777
 4541WAT      O29621   4.751   6.040   5.971  0.5526 -0.1381 -0.1093
 4541WAT     H129622   4.786   5.982   6.038 -1.5097 -0.5139  0.7040
 4541WAT     H229623   4.795   6.124   5.987  0.6870 -0.4381  1.1955
 4542WAT      O29624   3.532   5.502   0.856 -0.6321  0.0433  0.1530
 4542WAT     H129625   3.620   5.471   0.835 -0.5664  0.8148 -0.8218
 4542WAT     H229626   3.474   5.450   0.800 -0.7033  0.2826  0.0053
 4543WAT      O29627   1.240   1.723   1.076  0.1566 -0.3568  0.1735
 4543WAT     H129628   1.251   1.699   0.984  1.5791  1.1275 -0.0840
 4543WAT     H229629   1.279   1.810   1.083 -1.7477  0.4559  1.7679
 4544WAT      O29630   1.682   2.370   6.920 -0.4499  0.2294  0.0451
 4544WAT     H129631   1.739   2.439   6.953 -0.6078  1.0127 -1.2782
 4544WAT     H229632   1.608   2.416   6.880  0.7431 -0.5216 -3.3108
 4545WAT      O29633   1.136   5.861   6.316 -0.1807  0.5431  0.0675
 4545WAT     H129634   1.068   5.906   6.365  0.6062  1.3739  0.4341
 4545WAT     H229635   1.150   5.915   6.238  1.4031  1.4737  0.9520
 4546WAT      O29636   5.188   1.391   2.007  0.2257 -0.2332  0.1972
 4546WAT     H129637   5.226   1.412   1.922 -1.3012 -0.3039 -0.5333
 4546WAT     H229638   5.248   1.326   2.045  2.0556  1.3101  0.1277
 4547WAT      O29639   4.750   1.564   0.413  0.0027 -0.2560 -0.1630
 4547WAT     H129640   4.655   1.574   0.412  0.0864  1.5597  1.8937
 4547WAT     H229641   4.769   1.512   0.491  0.7507  0.5737  0.2282
 4548WAT      O29642   3.215   3.036   5.351  0.2872 -0.1680 -0.0492
 4548WAT     H129643   3.162   3.114   5.336  0.3398 -0.4511 -1.8645
 4548WAT     H229644   3.288   3.067   5.405  0.2270  1.0097 -0.6135
 4549WAT      O29645   2.170   0.079   7.558 -0.3521  0.6066 -0.0063
 4549WAT     H129646   2.170   0.128   7.640 -1.2064 -0.4271  0.6441
 4549WAT     H229647   2.086   0.100   7.517  0.2242  1.4087 -0.8195
 4550WAT      O29648   3.787   0.988   6.697  0.3822 -0.1604 -0.0320
 4550WAT     H129649   3.753   1.071   6.664 -0.3934  0.1295  1.3991
 4550WAT     H229650   3.788   0.930   6.621 -2.8481 -0.0316 -0.2958
 4551WAT      O29651   4.873   3.378   0.395  0.5895  0.0166 -0.2953
 4551WAT     H129652   4.816   3.453   0.411  0.9645  0.2163  0.1427
 4551WAT     H229653   4.944   3.388   0.458  0.3412 -1.0350  0.1654
 4552WAT      O29654   3.637   5.092   2.377  0.8567 -0.0643 -0.2334
 4552WAT     H129655   3.601   5.044   2.451  2.4602 -1.5005 -0.3450
 4552WAT     H229656   3.624   5.034   2.302 -0.4080  1.2111 -1.0712
 4553WAT      O29657   2.786   0.579   6.364  0.4888 -0.0887 -0.3666
 4553WAT     H129658   2.734   0.635   6.421  0.8656 -0.0043 -0.0990
 4553WAT     H229659   2.730   0.562   6.289 -0.0366 -0.2669  0.0672
 4554WAT      O29660   2.030   6.214   1.212  0.1435 -0.4352 -0.0094
 4554WAT     H129661   2.100   6.279   1.218 -1.5621  1.4646  0.2510
 4554WAT     H229662   2.051   6.150   1.281  0.2366  1.5476  1.9183
 4555WAT      O29663   4.896   3.269   0.117  0.5869 -0.1766  0.0725
 4555WAT     H129664   4.913   3.175   0.113 -1.3822 -0.6343  1.1749
 4555WAT     H229665   4.882   3.288   0.210 -1.9384  0.5869 -0.3833
 4556WAT      O29666   3.840   3.796   7.512 -0.3895 -0.2083 -0.3963
 4556WAT     H129667   3.833   3.841   7.596  0.8454  0.4245 -0.6059
 4556WAT     H229668   3.897   3.721   7.531 -1.4454 -1.0010 -0.3182
 4557WAT      O29669   2.979   4.107   7.208 -0.0013 -0.0761 -0.4644
 4557WAT     H129670   3.001   4.148   7.124  0.6936  0.1289 -0.1904
 4557WAT     H229671   3.059   4.114   7.260 -0.6517  0.4983  0.4909
 4558WAT      O29672   1.887   1.207   1.563  0.5773 -0.1644 -0.0740
 4558WAT     H129673   1.816   1.187   1.502  1.2923 -1.6587 -0.4430
 4558WAT     H229674   1.871   1.152   1.639  0.8528  0.1580  0.2249
 4559WAT      O29675   3.841   4.735   0.965  0.3403 -0.1784 -0.0692
 4559WAT     H129676   3.882   4.749   0.880  1.4657  0.8986  0.6172
 4559WAT     H229677   3.757   4.694   0.945 -1.5841  4.1337 -2.0851
 4560WAT      O29678   2.149   5.044   7.000 -0.5713  0.1874 -0.3830
 4560WAT     H129679   2.233   5.030   6.956 -0.2724 -0.5968  0.4230
 4560WAT     H229680   2.149   5.138   7.021 -0.3437  0.3956 -1.2615
 4561WAT      O29681   0.651   0.600   6.120  0.5497  0.5761  0.3915
 4561WAT     H129682   0.643   0.524   6.062 -1.2092  2.7333 -2.4651
 4561WAT     H229683   0.746   0.614   6.128  0.9805 -2.3961  1.8682
 4562WAT      O29684   1.323   3.363   0.973 -0.1089  0.7798 -0.4894
 4562WAT     H129685   1.276   3.284   0.949  2.5259 -1.2967  0.6526
 4562WAT     H229686   1.304   3.375   1.067  0.9703  0.3805 -0.2110
 4563WAT      O29687   3.077   5.355   1.858  0.1593 -0.2132 -0.1159
 4563WAT     H129688   3.010   5.367   1.926  1.9607  2.4433  1.3637
 4563WAT     H229689   3.138   5.292   1.895  0.2918  0.0102  0.0485
 4564WAT      O29690   2.580   1.525   0.206 -0.5044 -0.2503 -0.2067
 4564WAT     H129691   2.498   1.573   0.199 -1.0223 -0.9605  0.8231
 4564WAT     H229692   2.604   1.506   0.115 -1.1617  0.4670 -0.5463
 4565WAT      O29693   2.266   3.838   6.559 -0.1804 -0.1057  0.1961
 4565WAT     H129694   2.178   3.818   6.591 -0.4304  1.3575  0.5125
 4565WAT     H229695   2.324   3.785   6.613 -0.8976 -1.7692 -0.6140
 4566WAT      O29696   4.137   3.498   6.725  0.2661  0.1863  0.2091
 4566WAT     H129697   4.169   3.572   6.776  2.4597 -0.5394 -0.0122
 4566WAT     H229698   4.190   3.498   6.646  0.7331 -1.9460  0.4605
 4567WAT      O29699   4.541   0.601   7.836 -0.4380 -0.5574  0.0443
 4567WAT     H129700   4.623   0.574   7.877 -0.3272  0.4947  0.5660
 4567WAT     H229701   4.518   0.529   7.777  0.5613 -1.1148  0.3138
 4568WAT      O29702   3.055   4.591   2.443  0.3260  0.2869  0.0163
 4568WAT     H129703   2.977   4.565   2.394 -0.1493  2.4485 -0.4625
 4568WAT     H229704   3.029   4.670   2.490  2.3181  1.3175 -0.4966
 4569WAT      O29705   2.791   0.021   6.686 -0.0683 -0.1955 -0.3664
 4569WAT     H129706   2.730   0.089   6.660  0.0178  0.1726  0.3635
 4569WAT     H229707   2.737  -0.057   6.697 -0.4381  0.1635  0.4273
 4570WAT      O29708   5.022   3.558   7.858  0.3511 -0.0347  0.0358
 4570WAT     H129709   5.112   3.555   7.889  0.7071  0.4453 -0.9093
 4570WAT     H229710   4.974   3.607   7.926  1.0888  0.9288 -0.1184
 4571WAT      O29711   3.766   3.658   7.017  0.0074  0.3731  0.2707
 4571WAT     H129712   3.808   3.656   6.931  1.0432 -0.3891  0.7743
 4571WAT     H229713   3.673   3.667   6.998  0.2746  0.8111 -0.9148
 4572WAT      O29714   5.902   5.725   0.633  0.4254 -0.4416  0.0479
 4572WAT     H129715   5.862   5.657   0.579 -0.7156 -0.6364  1.0913
 4572WAT     H229716   5.908   5.686   0.720  2.8899 -0.3904 -0.0393
 4573WAT      O29717   0.825   3.103   5.478  0.1848  0.0562 -0.0715
 4573WAT     H129718   0.817   3.168   5.547  0.8132 -0.4126  0.4631
 4573WAT     H229719   0.893   3.043   5.509  0.7208  0.0192 -1.2491
 4574WAT      O29720   5.081   5.995   7.861 -0.0423 -0.5029  0.4878
 4574WAT     H129721   5.053   6.080   7.826  0.1994 -0.4432  0.4372
 4574WAT     H229722   5.168   6.012   7.898  1.4966 -1.4084 -2.3720
 4575WAT      O29723   0.042   6.005   0.985  0.7253 -0.4875  0.1106
 4575WAT     H129724   0.036   6.099   0.968 -0.5281 -0.7067 -0.8024
 4575WAT     H229725   0.128   5.980   0.952  1.5393  0.4987  1.3587
 4576WAT      O29726   2.640   5.585   0.683 -0.1046 -0.2412  0.0767
 4576WAT     H129727   2.682   5.638   0.751  0.5061 -0.5816 -0.0263
 4576WAT     H229728   2.612   5.649   0.617  0.9207 -0.0606 -0.2008
 4577WAT      O29729   4.683   2.878   7.588  0.1501  0.1261 -0.2251
 4577WAT     H129730   4.637   2.884   7.672  2.2568  1.6815  0.9169
 4577WAT     H229731   4.711   2.787   7.583  0.6736  0.1807  1.1902
 4578WAT      O29732   2.973   5.454   6.872  0.1642  0.6232  0.3333
 4578WAT     H129733   3.053   5.415   6.835 -0.4515 -0.1958 -0.1844
 4578WAT     H229734   2.987   5.454   6.966 -0.0680 -1.5070  0.4098
 4579WAT      O29735   4.454   5.918   5.635  0.2284  0.0629 -0.0358
 4579WAT     H129736   4.443   5.910   5.730 -0.2393  0.2628 -0.0721
 4579WAT     H229737   4.545   5.892   5.619  0.9879  2.0583  0.7166
 4580WAT      O29738   5.744   2.850   5.431 -0.0125  0.0204  0.7589
 4580WAT     H129739   5.833   2.868   5.398  0.6906 -1.9342  1.4214
 4580WAT     H229740   5.689   2.913   5.385  1.5261  0.3328 -0.8106
 4581WAT      O29741   4.272   5.897   7.765 -0.2119 -0.0804 -0.2091
 4581WAT     H129742   4.304   5.917   7.677 -1.5405  0.5759 -0.5682
 4581WAT     H229743   4.179   5.880   7.753 -0.2896 -0.5478  0.9983
 4582WAT      O29744   3.928   4.217   1.331 -0.3014 -0.4225 -0.0447
 4582WAT     H129745   3.983   4.170   1.269  0.4967  0.1167  0.2409
 4582WAT     H229746   3.846   4.232   1.284  0.1142 -0.4568 -0.7904
 4583WAT      O29747   0.504   3.302   7.282 -1.0914  0.4565  0.0314
 4583WAT     H129748   0.412   3.277   7.271 -1.1600  0.2991  0.9007
 4583WAT     H229749   0.503   3.397   7.278 -1.5082  0.5367  1.4215
 4584WAT      O29750   4.450   1.605   1.211 -0.2746 -0.5293  0.0503
 4584WAT     H129751   4.436   1.581   1.119 -0.0003 -0.9451  0.1136
 4584WAT     H229752   4.541   1.637   1.213 -0.9858  1.6796 -0.2646
 4585WAT      O29753   5.086   0.592   6.018  0.3589 -0.1342  0.5338
 4585WAT     H129754   5.149   0.621   5.952  0.3947 -2.0628 -0.3560
 4585WAT     H229755   5.135   0.593   6.100  1.1489 -0.2646  0.0754
 4586WAT      O29756   1.375   4.596   7.697 -0.2303 -0.3786 -0.5052
 4586WAT     H129757   1.458   4.562   7.664 -0.3349 -0.4736 -0.6735
 4586WAT     H229758   1.324   4.613   7.618 -0.1824  0.1636 -0.4241
 4587WAT      O29759   1.673   4.707   0.568  0.6824  0.3881 -0.1728
 4587WAT     H129760   1.615   4.783   0.565  0.6742  0.3757 -0.3086
 4587WAT     H229761   1.690   4.686   0.477  0.7123  0.2480 -0.1353
 4588WAT      O29762   2.158   5.606   7.754 -0.1946 -0.1351  0.1503
 4588WAT     H129763   2.214   5.666   7.704  0.6823 -1.6064 -0.7082
 4588WAT     H229764   2.173   5.520   7.714 -2.4395 -0.7333  0.4646
 4589WAT      O29765   5.657   2.759   5.847  0.1149  0.0112 -0.1458
 4589WAT     H129766   5.711   2.699   5.795  0.6041  0.4198 -0.1152
 4589WAT     H229767   5.589   2.703   5.885  0.8944 -0.6194  0.3389
 4590WAT      O29768   3.850   5.825   1.743 -0.0310 -0.0686 -0.6433
 4590WAT     H129769   3.893   5.772   1.810 -1.6002 -2.5891 -1.4780
 4590WAT     H229770   3.801   5.892   1.792  0.3340 -0.6926  0.6038
 4591WAT      O29771   2.878   0.976   1.503  0.2274  0.9519  0.3151
 4591WAT     H129772   2.881   1.016   1.590 -0.0094  2.1382 -0.1983
 4591WAT     H229773   2.859   1.049   1.444  0.9598  0.2781 -0.8017
 4592WAT      O29774   0.311   1.827   1.155  0.3437  0.1204  0.4646
 4592WAT     H129775   0.232   1.781   1.180  0.1090  0.5244  0.4759
 4592WAT     H229776   0.282   1.916   1.133  0.3389 -0.4546 -2.2881
 4593WAT      O29777   5.289   3.869   7.735  0.7411 -0.4508 -0.4060
 4593WAT     H129778   5.201   3.839   7.759  0.2897  0.1353 -1.2890
 4593WAT     H229779   5.326   3.902   7.817 -0.7835  1.5637 -0.4378
 4594WAT      O29780   0.717   4.958   6.893  0.5986 -0.1202  0.7156
 4594WAT     H129781   0.765   5.013   6.831 -0.3261  0.5607  0.5721
 4594WAT     H229782   0.716   5.008   6.975  0.9155 -0.5443  0.9840
 4595WAT      O29783   3.981   4.058   7.370 -0.0002  0.0636 -0.0804
 4595WAT     H129784   3.968   3.980   7.423 -0.1587  0.6302  0.7342
 4595WAT     H229785   3.987   4.026   7.280  1.6963 -1.0665  0.3951
 4596WAT      O29786   5.230   2.046   6.256  0.8406 -0.3457 -0.0086
 4596WAT     H129787   5.249   2.004   6.172 -1.0255  2.4947 -2.0304
 4596WAT     H229788   5.287   2.123   6.258  0.3113  0.0465  0.9582
 4597WAT      O29789   1.341   0.092   7.066  0.4835  0.2861  0.0525
 4597WAT     H129790   1.287   0.127   6.996  0.2960 -2.3567 -1.2497
 4597WAT     H229791   1.288   0.102   7.145 -1.4954 -1.1789 -1.0001
 4598WAT      O29792   1.827   0.669   7.822  0.7367  0.4027  0.5023
 4598WAT     H129793   1.895   0.713   7.771  0.2180 -1.8095 -2.3653
 4598WAT     H229794   1.754   0.730   7.823  0.9823  0.7690 -1.0180
 4599WAT      O29795   2.501   3.846   6.049  0.0909  0.2648  0.6018
 4599WAT     H129796   2.446   3.785   6.000  1.9524 -0.3497 -0.8172
 4599WAT     H229797   2.546   3.898   5.982  0.9693  0.9985  1.7129
 4600WAT      O29798   0.840   3.000   6.990 -0.1795 -0.4460 -0.3069
 4600WAT     H129799   0.825   2.965   7.078  1.4411 -0.7162 -0.1116
 4600WAT     H229800   0.920   3.052   6.998  0.7800 -1.6039 -1.9322
 4601WAT      O29801   2.164   0.747   0.036  0.5093 -0.0166 -0.5264
 4601WAT     H129802   2.128   0.724  -0.049 -0.9745  0.6655 -0.1157
 4601WAT     H229803   2.154   0.667   0.088 -1.5404  0.4756 -0.0854
 4602WAT      O29804   5.959   1.380   6.301 -0.1410  0.3410 -0.7471
 4602WAT     H129805   6.047   1.341   6.304 -0.5336 -0.5463 -0.3032
 4602WAT     H229806   5.963   1.442   6.229  0.6691 -0.1421 -1.1410
 4603WAT      O29807   1.659   3.402   0.662 -0.4205  0.4927 -0.2700
 4603WAT     H129808   1.628   3.423   0.574 -0.5334 -1.7224 -0.8066
 4603WAT     H229809   1.596   3.444   0.720 -1.1749  0.7889 -1.2701
 4604WAT      O29810   1.189   4.341   0.029  0.9243 -0.1226 -0.4148
 4604WAT     H129811   1.176   4.264   0.085  2.2915  0.6203  1.0325
 4604WAT     H229812   1.133   4.408   0.067  0.2518 -0.1976 -1.2563
 4605WAT      O29813   1.160   0.231   0.552  0.5383  0.7426  0.2959
 4605WAT     H129814   1.153   0.327   0.548 -0.2453  0.7130  0.7033
 4605WAT     H229815   1.076   0.199   0.518  0.8487  0.1908  0.0283
 4606WAT      O29816   6.031   3.652   7.669 -0.3277 -0.6343 -0.4448
 4606WAT     H129817   6.071   3.667   7.755 -0.4126  0.6104 -0.6016
 4606WAT     H229818   6.104   3.656   7.608 -0.3627 -0.8418 -0.5022
 4607WAT      O29819   6.058   2.453   0.262  0.0902  1.2217 -0.1466
 4607WAT     H129820   6.090   2.474   0.349 -0.2668 -1.3007  0.6669
 4607WAT     H229821   6.136   2.454   0.206  0.9680 -0.6780  0.9636
 4608WAT      O29822   6.132   4.367   1.693  0.0791 -0.1801  0.4552
 4608WAT     H129823   6.204   4.324   1.648 -0.2271 -1.8006  1.4539
 4608WAT     H229824   6.060   4.303   1.691 -0.8915  0.8619  0.6736
 4609WAT      O29825   2.900   3.732   1.676 -0.3983 -0.1593  0.0927
 4609WAT     H129826   2.822   3.681   1.654 -0.6070  0.4406 -0.5399
 4609WAT     H229827   2.962   3.666   1.709 -0.5348 -0.8803 -1.0354
 4610WAT      O29828   3.605   4.283   7.900 -0.6206 -0.3175  0.2787
 4610WAT     H129829   3.668   4.240   7.958 -1.1999  0.3721  1.4464
 4610WAT     H229830   3.527   4.228   7.905 -0.1415 -1.1826 -1.1800
 4611WAT      O29831   2.939   5.954   0.661 -0.2497  0.2016 -0.2354
 4611WAT     H129832   2.956   6.047   0.645  0.1246  0.5022  1.7254
 4611WAT     H229833   2.982   5.909   0.588  0.7370  1.4981 -0.4938
 4612WAT      O29834   1.009   4.669   5.601  0.4837 -0.4171  0.6205
 4612WAT     H129835   1.101   4.686   5.623  1.5731 -2.7370 -1.7028
 4612WAT     H229836   0.995   4.578   5.627 -1.1591 -0.1386  0.7966
 4613WAT      O29837   5.748   5.660   0.214 -0.6145 -0.7014  0.3051
 4613WAT     H129838   5.823   5.650   0.155  0.7078  0.7284  1.6365
 4613WAT     H229839   5.704   5.740   0.184  0.8410  0.8051  1.9439
 4614WAT      O29840   4.173   1.456   5.715  0.2634 -0.3284  0.5196
 4614WAT     H129841   4.221   1.381   5.681  0.7992 -1.0815  2.7569
 4614WAT     H229842   4.123   1.488   5.640  0.1965 -2.7565 -0.5736
 4615WAT      O29843   0.372   3.850   0.824  0.8476  0.0880  0.4977
 4615WAT     H129844   0.357   3.927   0.769  0.6701 -0.6870 -0.5777
 4615WAT     H229845   0.305   3.788   0.797  0.2069 -0.0141  2.2164
 4616WAT      O29846   5.546   1.534   7.682 -0.4955 -0.4693  0.4948
 4616WAT     H129847   5.534   1.476   7.606 -1.7841 -0.3204  0.5691
 4616WAT     H229848   5.557   1.475   7.756  0.3111 -0.6131  0.2692
 4617WAT      O29849   5.656   1.474   0.988  0.3856 -0.4900  0.1808
 4617WAT     H129850   5.575   1.428   1.012 -2.2457  2.5832 -1.9170
 4617WAT     H229851   5.672   1.534   1.062 -0.1299 -0.1366  0.0170
 4618WAT      O29852   3.820   5.822   2.111 -0.4250  0.0254  0.1843
 4618WAT     H129853   3.871   5.752   2.070 -1.8625 -0.0018 -1.6592
 4618WAT     H229854   3.807   5.887   2.041 -1.5724  0.7675  1.0477
 4619WAT      O29855   4.392   5.174   6.874  0.7822 -0.2872 -0.4316
 4619WAT     H129856   4.481   5.209   6.876  0.9552 -0.7520  0.3872
 4619WAT     H229857   4.401   5.083   6.899  0.0199 -0.2307  0.0903
 4620WAT      O29858   3.967   0.710   7.558 -0.9718  0.8805  0.4729
 4620WAT     H129859   3.984   0.717   7.464  0.5816 -0.6199  0.5852
 4620WAT     H229860   3.876   0.681   7.564 -1.0419  0.8393 -0.5726
 4621WAT      O29861   2.157   4.620   6.527  0.2323  0.7846  0.4954
 4621WAT     H129862   2.156   4.634   6.433 -0.2836 -0.5883  0.2739
 4621WAT     H229863   2.185   4.529   6.538  0.1412  0.8757  1.6631
 4622WAT      O29864   0.564   5.841   1.523  0.7525 -0.6662  0.5618
 4622WAT     H129865   0.519   5.774   1.471 -1.4371  1.2780 -0.2033
 4622WAT     H229866   0.657   5.825   1.506  0.2129 -1.5805 -2.0891
 4623WAT      O29867   2.231   0.166   1.230  0.3307 -0.5340 -0.3311
 4623WAT     H129868   2.254   0.239   1.172 -1.2463 -0.6426 -1.1534
 4623WAT     H229869   2.305   0.159   1.290  0.9406  1.1443 -0.8163
 4624WAT      O29870   2.495   3.073   6.256 -0.2971  0.0952 -0.1620
 4624WAT     H129871   2.447   2.991   6.248  0.1965 -0.4375  1.8430
 4624WAT     H229872   2.429   3.141   6.244 -0.8509 -0.5713 -1.0607
 4625WAT      O29873   2.447   2.804   0.566 -0.0963  0.4306 -0.2038
 4625WAT     H129874   2.351   2.809   0.567 -0.1700 -0.2979  2.5655
 4625WAT     H229875   2.473   2.872   0.503 -2.3796  1.0836 -0.5574
 4626WAT      O29876   0.271   4.684   6.734 -0.0695  0.3048 -0.2878
 4626WAT     H129877   0.214   4.611   6.711 -0.4029  0.5696 -0.3102
 4626WAT     H229878   0.269   4.741   6.657  1.0039 -0.1491 -0.6892
 4627WAT      O29879   3.526   3.586   0.050 -0.3809  0.7131 -0.1298
 4627WAT     H129880   3.456   3.550   0.105 -0.4745  0.2445 -0.5522
 4627WAT     H229881   3.533   3.525  -0.023  1.9412 -0.4636  0.9527
 4628WAT      O29882   5.753   2.462   7.926  0.4272  0.1984  0.7783
 4628WAT     H129883   5.778   2.499   7.841  1.4572  0.1859  1.0633
 4628WAT     H229884   5.802   2.381   7.933 -1.4419 -1.0254  0.3864
 4629WAT      O29885   1.494   0.689   0.986  0.0696  0.0417 -0.1508
 4629WAT     H129886   1.559   0.727   0.927 -1.5204 -0.8498 -2.6748
 4629WAT     H229887   1.430   0.760   1.000  0.0072  0.0039 -0.2375
 4630WAT      O29888   6.030   2.164   7.161  0.2679  0.5848  0.0513
 4630WAT     H129889   6.119   2.194   7.179  0.1555  0.2793  1.1868
 4630WAT     H229890   5.989   2.158   7.247 -0.6674  0.1480 -0.4095
 4631WAT      O29891   3.363   2.588   5.862  0.0354  0.4357  0.4106
 4631WAT     H129892   3.400   2.667   5.824 -0.2307  0.4350  0.1421
 4631WAT     H229893   3.276   2.615   5.892  0.2111  0.4152  0.9420
 4632WAT      O29894   1.055   3.930   6.811 -0.2866  0.2532  0.4511
 4632WAT     H129895   1.055   3.860   6.877 -0.7936 -0.8342 -0.6766
 4632WAT     H229896   1.025   4.007   6.859 -0.2223 -0.4101  1.6045
 4633WAT      O29897   5.016   3.202   1.159  0.8518  0.1871  0.3472
 4633WAT     H129898   4.985   3.259   1.229 -1.7280 -0.9669  0.2664
 4633WAT     H229899   5.038   3.262   1.087 -0.2192  1.1900  0.8216
 4634WAT      O29900   1.105   3.327   7.760 -0.0751  0.0246 -0.2183
 4634WAT     H129901   1.116   3.421   7.775 -0.6137  0.0040  0.3323
 4634WAT     H229902   1.054   3.297   7.835  1.7123 -1.0618  0.6244
 4635WAT      O29903   6.176   5.157   1.427 -0.2662  0.0009 -0.2783
 4635WAT     H129904   6.140   5.077   1.390  0.4968 -0.8525  0.7333
 4635WAT     H229905   6.229   5.195   1.357 -0.4941 -0.4825 -0.7178
 4636WAT      O29906   5.192   3.800   1.801  0.0947 -0.7346 -0.0293
 4636WAT     H129907   5.251   3.735   1.841 -0.8180 -1.2684  0.4778
 4636WAT     H229908   5.121   3.748   1.765 -2.1694  0.0830  2.8762
 4637WAT      O29909   3.420   2.540   7.119  0.0286 -0.2912  0.0936
 4637WAT     H129910   3.416   2.597   7.195 -0.7129  1.7000 -1.3511
 4637WAT     H229911   3.497   2.571   7.070 -1.6827  1.0929 -1.8572
 4638WAT      O29912   5.570   0.646   0.273 -0.1217 -0.3127  0.2025
 4638WAT     H129913   5.524   0.684   0.198  0.3022 -0.9737 -0.4132
 4638WAT     H229914   5.647   0.604   0.235  1.2663  1.1593  1.2550
 4639WAT      O29915   2.883   3.467   7.800 -0.5025  0.3474 -0.2898
 4639WAT     H129916   2.957   3.406   7.800  1.4742  2.6073 -0.2165
 4639WAT     H229917   2.808   3.414   7.829  1.7400 -1.3052  3.1627
 4640WAT      O29918   3.469   1.296   2.238  0.3629 -0.1582 -0.1637
 4640WAT     H129919   3.529   1.283   2.312  1.2190 -0.8638 -0.9540
 4640WAT     H229920   3.390   1.248   2.263 -0.0258  1.0303  1.0231
 4641WAT      O29921   3.262   0.952   7.649 -0.2544 -0.1175 -0.5641
 4641WAT     H129922   3.290   0.884   7.711 -0.7016 -1.8395 -2.1538
 4641WAT     H229923   3.321   0.941   7.574  0.0292  1.6603 -0.6420
 4642WAT      O29924   4.947   1.330   7.497  0.0376 -0.2719  0.2661
 4642WAT     H129925   5.014   1.372   7.444 -0.8233 -0.7373 -1.2832
 4642WAT     H229926   4.955   1.369   7.583  2.4590 -0.5176  0.2122
 4643WAT      O29927   4.660   5.810   7.046  0.6357 -0.0565 -0.5177
 4643WAT     H129928   4.711   5.876   6.998 -0.0287  1.1909  0.4535
 4643WAT     H229929   4.596   5.861   7.095  0.0666 -1.4504  0.2087
 4644WAT      O29930   1.385   0.697   1.334 -0.3960 -0.5443  0.7733
 4644WAT     H129931   1.425   0.614   1.308  1.7979  0.6288  0.1892
 4644WAT     H229932   1.422   0.715   1.421  0.4099  0.5677  0.2226
 4645WAT      O29933   2.892   4.232   7.573 -0.5013  0.4918 -0.1410
 4645WAT     H129934   2.950   4.235   7.649 -0.1031 -1.2255 -0.3433
 4645WAT     H229935   2.925   4.302   7.516  0.9410  0.0105  0.0608
 4646WAT      O29936   4.767   0.583   7.422  0.0220 -0.3727  0.3473
 4646WAT     H129937   4.849   0.562   7.466  1.1419 -0.2623 -1.5945
 4646WAT     H229938   4.722   0.499   7.415 -0.3839 -0.3303  2.0136
 4647WAT      O29939   2.940   5.516   1.623 -0.2643  0.9396  0.6821
 4647WAT     H129940   2.959   5.429   1.659 -0.4018  0.4462 -0.3957
 4647WAT     H229941   2.947   5.505   1.528  0.2615  2.2444  0.5408
 4648WAT      O29942   0.302   6.022   0.555  0.4102 -0.0505 -0.2880
 4648WAT     H129943   0.364   5.979   0.614  0.2029  3.3651  2.7451
 4648WAT     H229944   0.344   6.106   0.534 -0.5709 -0.1914 -3.3086
 4649WAT      O29945   0.294   3.363   6.729 -0.6879  0.2003 -0.3908
 4649WAT     H129946   0.201   3.388   6.723 -0.5055  1.7152  1.8473
 4649WAT     H229947   0.339   3.445   6.749  0.7415 -0.9688  1.4903
 4650WAT      O29948   4.173   6.058   6.222  0.3616  0.6306 -0.4200
 4650WAT     H129949   4.137   5.982   6.268 -0.7483  1.3808 -0.0204
 4650WAT     H229950   4.267   6.043   6.223  0.1202 -1.6170 -1.8855
 4651WAT      O29951   5.123   1.756   1.491  0.2515  0.2792 -0.1323
 4651WAT     H129952   5.164   1.670   1.497  0.9439  0.3982 -2.2448
 4651WAT     H229953   5.191   1.816   1.521  0.2415  0.1858  0.0773
 4652WAT      O29954   2.111   3.392   1.170  0.1056  0.1567 -0.1882
 4652WAT     H129955   2.111   3.417   1.263 -1.9091  0.5733 -0.2459
 4652WAT     H229956   2.150   3.304   1.169 -1.5017 -0.6429  1.3471
 4653WAT      O29957   3.904   5.672   0.290  0.6036  0.2507 -0.0382
 4653WAT     H129958   3.891   5.763   0.264 -1.4409 -0.4746 -1.8439
 4653WAT     H229959   3.844   5.659   0.363  1.0546  0.3689  0.3652
 4654WAT      O29960   4.181   6.127   0.607 -0.1031  0.1808 -0.1676
 4654WAT     H129961   4.199   6.034   0.621  0.0034 -0.0652 -1.7775
 4654WAT     H229962   4.128   6.152   0.682 -1.7732 -1.6812 -0.6171
 4655WAT      O29963   5.980   0.308   6.171 -0.2680  0.8082 -0.7090
 4655WAT     H129964   5.911   0.370   6.195 -0.3872 -0.3329  2.3812
 4655WAT     H229965   5.946   0.263   6.094 -2.9225  0.4971  0.5157
 4656WAT      O29966   0.209   2.206   6.556  0.0512 -0.9216 -0.2022
 4656WAT     H129967   0.162   2.153   6.619  1.3928 -0.4284  1.2813
 4656WAT     H229968   0.293   2.162   6.545  0.2346 -0.4294 -0.8634
 4657WAT      O29969   0.053   1.321   0.625  0.0422  0.0456  0.7414
 4657WAT     H129970   0.117   1.380   0.665  1.1183 -0.4070 -0.2294
 4657WAT     H229971  -0.005   1.379   0.575  1.4131  0.3024 -0.6418
 4658WAT      O29972   5.767   0.535   6.667 -0.3453  0.8921  0.2328
 4658WAT     H129973   5.798   0.624   6.684  0.3844  0.8742 -0.9197
 4658WAT     H229974   5.766   0.494   6.753  0.1702  1.7481  0.6646
 4659WAT      O29975   4.760   2.496   0.545  0.6377  0.6154 -0.6232
 4659WAT     H129976   4.819   2.569   0.528  0.1564  0.7068 -2.0587
 4659WAT     H229977   4.817   2.425   0.575  1.0577  1.6784  1.2916
 4660WAT      O29978   0.919   1.247   7.367  0.4101  0.5796 -0.3607
 4660WAT     H129979   0.960   1.322   7.409 -0.4020  0.2531  1.0761
 4660WAT     H229980   0.825   1.266   7.370  0.1604 -0.6714  0.4248
 4661WAT      O29981   0.433   2.331   6.051 -0.1643 -0.4141 -0.0264
 4661WAT     H129982   0.402   2.251   6.010 -2.2430 -0.3736  1.3056
 4661WAT     H229983   0.453   2.306   6.142  1.5477  0.0834 -0.2319
 4662WAT      O29984   3.862   6.041   1.549 -0.1021  0.5638  0.1806
 4662WAT     H129985   3.857   5.957   1.594 -0.1369  0.5457  0.1441
 4662WAT     H229986   3.868   6.106   1.619  2.0420  0.4148  0.1850
 4663WAT      O29987   2.447   6.067   1.611 -0.4358  0.1092  0.3829
 4663WAT     H129988   2.393   6.115   1.674 -0.8948 -0.9396  0.8200
 4663WAT     H229989   2.518   6.030   1.664  2.4957  3.7987 -0.5769
 4664WAT      O29990   4.341   3.874   7.631  0.4867  0.0843  0.3706
 4664WAT     H129991   4.276   3.944   7.636 -1.0816 -1.3623  1.7361
 4664WAT     H229992   4.425   3.918   7.642 -0.1782  2.0570 -1.6808
 4665WAT      O29993   1.146   3.960   7.616 -0.0055  0.2912 -0.3543
 4665WAT     H129994   1.208   3.908   7.668  0.7016 -0.2682 -1.7015
 4665WAT     H229995   1.134   4.040   7.667  0.0165 -0.5728  1.0553
 4666WAT      O29996   0.402   4.403   6.337 -0.2414 -0.6952 -0.1107
 4666WAT     H129997   0.473   4.344   6.311  0.7975  0.2763  0.4353
 4666WAT     H229998   0.414   4.480   6.282 -0.9736 -0.5650 -0.1012
 4667WAT      O29999   0.122   1.089   0.753  0.4328  0.0419  0.7081
 4667WAT     H130000   0.064   1.057   0.822  0.1122 -0.2587  0.3039
 4667WAT     H230001   0.084   1.173   0.727  0.2537 -0.0914  0.5367
 4668WAT      O30002   3.382   4.558   0.493 -0.1605 -0.3085  0.3159
 4668WAT     H130003   3.476   4.538   0.498 -0.0201 -0.3443 -1.7468
 4668WAT     H230004   3.340   4.487   0.542  0.8377 -0.9773  0.2284
 4669WAT      O30005   3.854   2.043   1.305 -0.0576  0.1063 -0.1584
 4669WAT     H130006   3.926   2.084   1.353  0.3799 -0.7014 -0.1010
 4669WAT     H230007   3.816   1.981   1.368 -0.6065  0.2965 -0.2918
 4670WAT      O30008   5.579   1.387   6.055  0.4096 -0.9013 -0.3122
 4670WAT     H130009   5.504   1.330   6.037  0.0688 -0.2556 -0.9835
 4670WAT     H230010   5.601   1.369   6.146  1.2712 -3.2136 -0.9167
 4671WAT      O30011   6.015   3.711   1.049 -0.2161 -0.0893  0.2187
 4671WAT     H130012   6.015   3.632   1.103  1.6128  0.2447  0.7754
 4671WAT     H230013   6.008   3.783   1.112  0.7158  0.2632 -0.0544
 4672WAT      O30014   3.695   2.133   7.775 -0.1206  0.0344  0.4566
 4672WAT     H130015   3.789   2.128   7.788  0.6224  0.2030 -3.5828
 4672WAT     H230016   3.681   2.217   7.731 -2.1074 -0.1292  0.6801
 4673WAT      O30017   1.854   2.224   7.153  0.1226  0.3793  0.0472
 4673WAT     H130018   1.839   2.294   7.090 -1.4365  0.6552  0.6841
 4673WAT     H230019   1.766   2.189   7.171  0.5525  0.1425  1.8565
 4674WAT      O30020   5.492   1.786   0.053 -0.0019  0.5085 -0.5417
 4674WAT     H130021   5.462   1.870   0.020  0.6980  0.0010 -2.6675
 4674WAT     H230022   5.432   1.722   0.015 -0.0686 -0.0291  0.4258
 4675WAT      O30023   5.855   1.311   7.296 -0.3209  0.1437 -0.1537
 4675WAT     H130024   5.927   1.355   7.250 -0.6510  0.4977 -0.3457
 4675WAT     H230025   5.835   1.235   7.242 -0.6576  0.5161 -0.5592
 4676WAT      O30026   1.752   3.740   5.389 -0.2887 -0.0188  0.4116
 4676WAT     H130027   1.766   3.652   5.355  1.9228  0.6930 -0.6953
 4676WAT     H230028   1.691   3.780   5.327  0.2397 -0.1583 -0.2099
 4677WAT      O30029   0.340   4.443   7.402 -0.5577  0.0034  0.3744
 4677WAT     H130030   0.397   4.421   7.328 -0.6678 -1.5431  0.7214
 4677WAT     H230031   0.254   4.459   7.362 -0.0917  1.6058 -0.0669
 4678WAT      O30032   1.327   5.808   0.258 -0.2454  0.0375 -0.0455
 4678WAT     H130033   1.312   5.749   0.331 -0.7527 -0.9620 -0.9226
 4678WAT     H230034   1.312   5.754   0.180 -1.2514  1.4603 -0.8825
 4679WAT      O30035   4.453   5.161   0.298  0.0084 -0.3866 -0.1160
 4679WAT     H130036   4.454   5.077   0.344 -2.0145 -0.2333  0.2876
 4679WAT     H230037   4.361   5.174   0.274  0.1762  2.0022  0.3515
 4680WAT      O30038   2.255   2.199   7.721 -0.0680 -0.3748 -0.2789
 4680WAT     H130039   2.281   2.282   7.682  1.8658 -0.9296 -0.3175
 4680WAT     H230040   2.252   2.138   7.648 -1.1776 -0.4155 -0.2101
 4681WAT      O30041   4.782   0.464   1.590 -0.0995 -1.1488  0.2437
 4681WAT     H130042   4.720   0.428   1.654  0.5701 -0.4481  1.3358
 4681WAT     H230043   4.853   0.501   1.644 -0.7596  1.8262 -0.7337
 4682WAT      O30044   4.487   1.669   7.613  0.1687 -0.5762  0.2007
 4682WAT     H130045   4.552   1.654   7.544  0.7188 -0.1224  0.6151
 4682WAT     H230046   4.539   1.684   7.692 -0.4509 -0.5741  0.6117
 4683WAT      O30047   2.708   1.993   7.547 -0.4413  0.0741  0.0380
 4683WAT     H130048   2.784   1.942   7.574  0.6154  0.5831 -1.7652
 4683WAT     H230049   2.644   1.980   7.617  1.6005  0.3458  2.0973
 4684WAT      O30050   4.712   0.083   7.615  0.4612 -0.5072 -0.4928
 4684WAT     H130051   4.627   0.054   7.581  0.3134 -1.2252  0.4359
 4684WAT     H230052   4.776   0.036   7.562  0.2948  0.1943 -1.3361
 4685WAT      O30053   3.259   1.166   2.048 -0.9945 -0.0011  0.1589
 4685WAT     H130054   3.225   1.122   2.125 -1.0612 -0.6681 -0.2340
 4685WAT     H230055   3.228   1.113   1.974 -3.6211  2.3452 -0.5825
 4686WAT      O30056   3.913   0.760   6.799  0.1151 -0.2621  0.1771
 4686WAT     H130057   3.940   0.741   6.709 -1.0388  1.6371 -0.6482
 4686WAT     H230058   3.865   0.843   6.792  0.3561  0.1547  2.6162
 4687WAT      O30059   4.451   1.224   5.887 -0.0435 -0.2126 -0.6896
 4687WAT     H130060   4.445   1.129   5.877  1.2962 -0.5132  0.7706
 4687WAT     H230061   4.362   1.256   5.875 -1.3028 -2.0954  2.3331
 4688WAT      O30062   0.087   3.184   7.866  0.1858  0.2361 -0.4400
 4688WAT     H130063   0.118   3.122   7.800  1.2213 -0.4896  0.6866
 4688WAT     H230064   0.043   3.252   7.816 -0.0787 -0.8760 -1.7970
 4689WAT      O30065   0.328   5.413   2.421  0.1907  0.5099 -0.0257
 4689WAT     H130066   0.275   5.454   2.353  1.1771 -1.0231 -1.8354
 4689WAT     H230067   0.418   5.417   2.388  0.9799  1.2533  2.0269
 4690WAT      O30068   3.111   1.537   1.285  0.1680 -0.1325  0.4547
 4690WAT     H130069   3.188   1.588   1.309  0.1910  0.1316 -0.1511
 4690WAT     H230070   3.144   1.448   1.271  0.4656  0.0920 -0.3188
 4691WAT      O30071   5.042   0.445   6.755 -0.1326 -0.2719 -0.4490
 4691WAT     H130072   5.006   0.357   6.768 -2.0426  0.6058  0.5763
 4691WAT     H230073   5.020   0.492   6.836  0.9769  1.1261 -0.9166
 4692WAT      O30074   4.230   5.332   6.686  0.8557  0.0382 -0.0556
 4692WAT     H130075   4.290   5.322   6.612  1.2609 -0.8304  0.3778
 4692WAT     H230076   4.281   5.304   6.762 -0.6034 -2.4657  0.1131
 4693WAT      O30077   3.781   6.041   7.130  0.1076 -0.6217 -0.9125
 4693WAT     H130078   3.867   6.023   7.091  0.2413  0.8490 -1.3648
 4693WAT     H230079   3.736   6.095   7.065 -0.8460 -0.7025 -0.3301
 4694WAT      O30080   5.580   1.526   0.728 -0.1175 -0.0427 -0.1003
 4694WAT     H130081   5.617   1.456   0.673 -0.6938 -1.7481  1.5501
 4694WAT     H230082   5.612   1.506   0.816 -0.6365  1.5663  0.4805
 4695WAT      O30083   2.671   0.010   2.560  0.0896 -0.6306  0.0515
 4695WAT     H130084   2.615   0.065   2.505  0.0689 -1.2233 -0.5281
 4695WAT     H230085   2.659  -0.079   2.525  2.5217 -0.5881 -1.0395
 4696WAT      O30086   3.075   2.674   1.790 -0.2964 -0.5442  0.3634
 4696WAT     H130087   3.059   2.698   1.699 -0.3889  1.2564  0.8219
 4696WAT     H230088   3.169   2.652   1.792 -0.3600 -0.9073 -0.2102
 4697WAT      O30089   3.581   0.829   0.134  0.3820 -0.0507 -0.5739
 4697WAT     H130090   3.529   0.904   0.164  0.7139 -0.8527  2.3846
 4697WAT     H230091   3.522   0.754   0.143  1.0498 -0.5500 -0.2459
 4698WAT      O30092   2.647   0.196   6.261 -0.0621 -0.2526 -0.5273
 4698WAT     H130093   2.742   0.185   6.266 -0.2365 -2.8690 -1.1373
 4698WAT     H230094   2.613   0.130   6.321 -1.5000  0.6325 -0.3386
 4699WAT      O30095   3.137   3.728   0.408  0.6977 -0.0414  0.1671
 4699WAT     H130096   3.212   3.762   0.457 -1.7239  1.2279  3.3667
 4699WAT     H230097   3.124   3.640   0.442 -0.2142  0.3599  0.8927
 4700WAT      O30098   2.331   1.197   0.150  0.1182  0.1700  0.1713
 4700WAT     H130099   2.356   1.138   0.221 -0.3015 -1.9517 -1.3415
 4700WAT     H230100   2.320   1.140   0.074 -4.6208  1.4614 -0.4670
 4701WAT      O30101   5.657   5.326   7.440  0.3952  0.2038 -0.1374
 4701WAT     H130102   5.714   5.388   7.394 -0.3864  0.9845 -0.0928
 4701WAT     H230103   5.684   5.332   7.531 -0.5547  1.5100  0.0839
 4702WAT      O30104   2.829   0.690   1.445  0.3683  0.0732  0.0189
 4702WAT     H130105   2.842   0.783   1.460  0.5819  0.0496 -0.0175
 4702WAT     H230106   2.734   0.680   1.434  0.2222  0.1344  1.0885
 4703WAT      O30107   1.377   4.868   6.270  0.5520 -0.1256 -0.0018
 4703WAT     H130108   1.412   4.812   6.201 -1.0353 -0.5092 -0.5329
 4703WAT     H230109   1.409   4.956   6.247  0.9063 -0.4060 -0.6146
 4704WAT      O30110   4.376   4.082   7.134  0.2739  0.2851 -0.1119
 4704WAT     H130111   4.303   4.024   7.110 -0.1919  1.6142 -2.1785
 4704WAT     H230112   4.339   4.140   7.201  0.2671 -0.7248  0.7848
 4705WAT      O30113   0.502   3.332   1.266 -0.2243 -0.5916  0.6354
 4705WAT     H130114   0.498   3.298   1.356 -1.0547  1.6658  1.5339
 4705WAT     H230115   0.568   3.402   1.271 -0.3318 -0.4011 -0.5078
 4706WAT      O30116   0.534   4.867   7.754  0.7837 -0.1644  0.0481
 4706WAT     H130117   0.564   4.793   7.806  2.9384  0.2615 -0.4765
 4706WAT     H230118   0.514   4.935   7.817 -0.0392 -0.7782  0.4667
 4707WAT      O30119   1.097   2.790   6.974  0.4564 -0.1948  0.0747
 4707WAT     H130120   1.080   2.884   6.977 -1.0415 -0.3676 -1.4291
 4707WAT     H230121   1.052   2.755   7.051  0.6947  0.2615  0.4284
 4708WAT      O30122   1.876   5.954   0.231 -0.4619  0.1037  0.1104
 4708WAT     H130123   1.784   5.937   0.252 -0.7920  0.7767 -0.7257
 4708WAT     H230124   1.873   6.030   0.174  0.6926  0.6960  0.8183
 4709WAT      O30125   3.016   2.349   0.628 -0.2907  0.0982  0.1738
 4709WAT     H130126   3.029   2.343   0.723 -1.7318 -0.9830  0.3354
 4709WAT     H230127   3.097   2.314   0.591  0.7151  1.4807  0.9549
 4710WAT      O30128   0.999   5.348   1.349 -0.4548  0.4513  0.0487
 4710WAT     H130129   0.933   5.338   1.281 -2.2712  0.1408  1.7679
 4710WAT     H230130   0.952   5.389   1.422  1.3692  0.6481  1.1773
 4711WAT      O30131   6.096   0.939   1.413 -0.3421 -0.0244 -0.1085
 4711WAT     H130132   6.170   0.958   1.472 -0.0845  1.7999 -0.9366
 4711WAT     H230133   6.036   0.887   1.466  0.9317 -0.4090  1.0131
 4712WAT      O30134   1.795   5.637   1.279  0.5614 -1.0693 -0.3274
 4712WAT     H130135   1.886   5.608   1.290  0.9523  0.2790  0.1847
 4712WAT     H230136   1.801   5.732   1.271 -0.8405 -0.9187  0.1366
 4713WAT      O30137   3.828   4.727   7.015  0.4700 -0.3300  0.1372
 4713WAT     H130138   3.828   4.821   6.994 -1.7657  0.1373  1.8649
 4713WAT     H230139   3.896   4.717   7.082 -0.4468  0.4429  1.2246
 4714WAT      O30140   1.101   0.240   7.672  0.5216 -0.3843 -0.0636
 4714WAT     H130141   1.167   0.309   7.672  0.2387 -0.1107  0.5945
 4714WAT     H230142   1.051   0.253   7.752 -0.4065 -0.5313 -0.6009
 4715WAT      O30143   0.858   0.503   1.722 -0.3507 -0.2900 -0.0187
 4715WAT     H130144   0.795   0.496   1.651 -1.2421 -0.9694  0.8167
 4715WAT     H230145   0.810   0.546   1.793  0.4880  0.2718  0.2296
 4716WAT      O30146   0.507   0.365   7.484  0.0039  0.0143 -0.2052
 4716WAT     H130147   0.584   0.392   7.533 -0.6873 -0.3447  1.1294
 4716WAT     H230148   0.539   0.351   7.395  1.0196  2.0513 -0.2241
 4717WAT      O30149   3.538   4.417   6.936 -0.1162  0.4406  0.4249
 4717WAT     H130150   3.608   4.479   6.956  1.1716 -0.9794  0.5142
 4717WAT     H230151   3.547   4.401   6.842  0.1252 -0.2500  0.5583
 4718WAT      O30152   1.053   4.937   7.763  0.5490  0.2168 -0.1693
 4718WAT     H130153   1.065   4.957   7.671  0.2213 -1.6744 -0.6677
 4718WAT     H230154   1.131   4.972   7.806  0.5915  1.3299 -1.1062
 4719WAT      O30155   2.875   1.990   0.550  0.6821  0.3016  0.2183
 4719WAT     H130156   2.849   1.969   0.460 -0.0055 -0.1353  0.5136
 4719WAT     H230157   2.961   1.949   0.559 -0.6134 -2.5252  0.7775
 4720WAT      O30158   3.588   5.861   0.317 -0.3389  0.2052  0.2763
 4720WAT     H130159   3.627   5.794   0.261 -0.4684 -0.3482  0.8367
 4720WAT     H230160   3.611   5.944   0.275  1.1686 -0.1166  0.4190
 4721WAT      O30161   4.261   2.256   0.626 -0.0501  0.1411 -0.3567
 4721WAT     H130162   4.192   2.254   0.692 -0.6733  0.9498 -0.9537
 4721WAT     H230163   4.339   2.284   0.674  0.0237 -1.3568  0.4415
 4722WAT      O30164   0.839   1.014   6.037 -0.7958  0.0520 -0.1778
 4722WAT     H130165   0.927   1.051   6.030 -0.8238  0.3598  0.9981
 4722WAT     H230166   0.785   1.069   5.980 -0.8597  1.9596  1.6199
 4723WAT      O30167   5.216   0.149   1.224 -0.0633 -0.0816 -0.2638
 4723WAT     H130168   5.180   0.075   1.273 -0.3245 -0.8746 -1.6045
 4723WAT     H230169   5.218   0.119   1.133  0.2868  1.3921 -0.7725
 4724WAT      O30170   0.995   3.221   6.033 -0.2217 -0.3481  0.0426
 4724WAT     H130171   0.931   3.276   6.079 -1.1660 -0.3506 -1.2174
 4724WAT     H230172   1.019   3.273   5.956  0.8717 -0.5973  0.2070
 4725WAT      O30173   2.305   5.475   0.418 -0.2988 -0.0391 -0.0104
 4725WAT     H130174   2.377   5.519   0.372 -0.1419 -1.3969 -1.1332
 4725WAT     H230175   2.246   5.546   0.443  0.8817  0.9891 -0.0402
 4726WAT      O30176   2.220   2.675   5.937  0.0852  0.2988  0.1133
 4726WAT     H130177   2.258   2.668   5.850  1.1084  0.3102  0.5380
 4726WAT     H230178   2.136   2.719   5.924 -0.9805 -1.9571 -1.1672
 4727WAT      O30179   0.978   4.137   7.032  0.0653 -0.1300  0.3394
 4727WAT     H130180   0.989   4.183   7.115  3.3058 -0.3650  0.1566
 4727WAT     H230181   1.019   4.195   6.967  0.2887 -1.2967 -0.6031
 4728WAT      O30182   0.360   3.414   0.645  0.3528  0.1047  0.5396
 4728WAT     H130183   0.435   3.412   0.585 -0.0521 -0.5545  0.0304
 4728WAT     H230184   0.286   3.390   0.590 -0.3002  1.1012  0.9607
 4729WAT      O30185   2.905   1.658   7.602 -0.1555  0.1604  0.1361
 4729WAT     H130186   2.967   1.608   7.656  0.1261  0.5921  0.2121
 4729WAT     H230187   2.896   1.742   7.647 -1.6996 -0.3094  0.7638
 4730WAT      O30188   4.180   5.514   0.325 -0.4501 -0.0915  0.2179
 4730WAT     H130189   4.100   5.566   0.323 -1.7823 -2.0676 -1.7491
 4730WAT     H230190   4.153   5.426   0.300  2.4616 -0.6338 -1.4957
 4731WAT      O30191   3.944   4.289   7.518 -0.6044 -0.0484  0.1667
 4731WAT     H130192   3.947   4.209   7.465 -0.7077  1.2542 -1.9309
 4731WAT     H230193   3.922   4.358   7.455 -0.5024  1.6380  1.9060
 4732WAT      O30194   5.173   4.908   0.297 -0.2695  0.3664  0.2306
 4732WAT     H130195   5.187   4.993   0.254  0.3932  0.0039 -0.2883
 4732WAT     H230196   5.262   4.876   0.315 -0.4352 -1.1862 -1.5013
 4733WAT      O30197   5.812   2.126   6.814  0.6756 -0.3180  0.1532
 4733WAT     H130198   5.871   2.086   6.750 -0.1683 -1.0011 -0.2122
 4733WAT     H230199   5.837   2.219   6.815  2.3742 -0.7415  0.6940
 4734WAT      O30200   3.945   2.100   0.501  0.1120  0.6285  0.5709
 4734WAT     H130201   3.875   2.064   0.447  1.2194 -1.9058  0.6691
 4734WAT     H230202   4.007   2.138   0.438  0.8729 -1.3458  0.0492
 4735WAT      O30203   0.216   1.515   6.294  0.3673  0.0184  0.2191
 4735WAT     H130204   0.185   1.441   6.243  2.3818  0.0034 -1.0903
 4735WAT     H230205   0.168   1.590   6.258  0.4223 -0.2586 -0.4508
 4736WAT      O30206   1.249   3.104   0.940 -0.5410  0.1794 -0.5031
 4736WAT     H130207   1.213   3.087   1.027 -0.5923 -0.4332 -0.6380
 4736WAT     H230208   1.204   3.041   0.883 -0.5621  0.6225 -0.9868
 4737WAT      O30209   4.991   2.737   0.163 -0.3437  0.3498 -0.0374
 4737WAT     H130210   5.064   2.792   0.135  2.0365 -2.2781  0.5068
 4737WAT     H230211   5.031   2.671   0.220 -2.9575 -1.9132 -0.5754
 4738WAT      O30212   4.290   0.446   1.241  0.1852 -0.1472  0.2722
 4738WAT     H130213   4.354   0.498   1.193 -0.3494  0.8743  0.6519
 4738WAT     H230214   4.268   0.374   1.182  3.0917 -1.6380  0.8257
 4739WAT      O30215   0.464   0.101   6.888  0.0687  0.6006 -0.0413
 4739WAT     H130216   0.484   0.115   6.795  1.5181 -1.0070 -0.0295
 4739WAT     H230217   0.419   0.016   6.890 -0.4715  0.8996  0.6772
 4740WAT      O30218   5.188   2.192   6.508  0.0357  0.2311  0.6146
 4740WAT     H130219   5.094   2.176   6.519 -0.0975 -0.8428 -1.5692
 4740WAT     H230220   5.192   2.273   6.456  0.2838 -0.1487  0.0352
 4741WAT      O30221   3.106   3.510   6.294  0.1423  0.1739  0.2174
 4741WAT     H130222   3.062   3.531   6.376 -0.2593  1.1568 -0.2251
 4741WAT     H230223   3.046   3.541   6.226  0.0564 -1.4283 -0.4823
 4742WAT      O30224   2.398   4.462   7.721 -0.5235 -0.3835 -0.4936
 4742WAT     H130225   2.472   4.477   7.662  0.0082 -1.0929 -0.0307
 4742WAT     H230226   2.320   4.470   7.666 -0.1430  1.0183 -0.8641
 4743WAT      O30227   0.454   0.610   7.764  0.2938  0.0352 -0.1434
 4743WAT     H130228   0.493   0.540   7.817  0.2655  0.1704  0.0579
 4743WAT     H230229   0.393   0.565   7.706  0.8286 -0.1967 -0.5458
 4744WAT      O30230   0.295   4.703   6.216  0.1029 -0.1770 -0.2016
 4744WAT     H130231   0.382   4.741   6.207  0.6710 -1.1453  0.9665
 4744WAT     H230232   0.280   4.656   6.133  1.4142 -1.4204  0.2338
 4745WAT      O30233   1.314   2.349   1.537  0.2124  0.6452 -0.8773
 4745WAT     H130234   1.356   2.329   1.621 -0.4616 -1.2734 -0.9561
 4745WAT     H230235   1.386   2.342   1.473  0.7378  2.1622 -0.4879
 4746WAT      O30236   3.168   4.551   0.256 -0.1256  0.9179 -0.1110
 4746WAT     H130237   3.127   4.631   0.289  0.4649  0.2644  2.3949
 4746WAT     H230238   3.249   4.543   0.305 -0.0886 -1.1334 -0.4216
 4747WAT      O30239   4.121   5.149   0.983 -1.1232  0.3897 -0.1224
 4747WAT     H130240   4.123   5.054   0.999 -1.5238  0.6053  1.2938
 4747WAT     H230241   4.156   5.187   1.063 -2.4964  1.5133 -0.0352
 4748WAT      O30242   4.126   3.589   1.079  0.1970 -0.0147  0.1130
 4748WAT     H130243   4.211   3.559   1.111 -0.1398 -1.2329 -0.0865
 4748WAT     H230244   4.064   3.527   1.116 -0.3770 -0.4419 -1.5130
 4749WAT      O30245   5.674   4.586   1.165 -0.0676  0.1535  0.1432
 4749WAT     H130246   5.607   4.610   1.101 -0.1675 -1.2998 -0.3460
 4749WAT     H230247   5.752   4.632   1.136 -0.4640  0.6189 -0.2086
 4750WAT      O30248   4.418   5.495   1.342  0.2391 -0.1941 -0.0235
 4750WAT     H130249   4.390   5.518   1.430 -0.9067 -1.2345 -0.0847
 4750WAT     H230250   4.351   5.528   1.285  0.0885 -1.0582 -0.3568
 4751WAT      O30251   4.912   2.998   0.070  0.7130 -0.4283 -0.4079
 4751WAT     H130252   5.005   3.002   0.050  0.6180 -2.3863 -1.4569
 4751WAT     H230253   4.896   2.905   0.090 -1.1571 -0.2892 -1.0747
 4752WAT      O30254   3.614   3.018   0.739  0.3143  0.0079  0.2039
 4752WAT     H130255   3.573   3.011   0.653  2.5048 -0.1337 -0.9118
 4752WAT     H230256   3.550   3.066   0.792 -0.0580  2.5869 -2.2623
 4753WAT      O30257   4.885   1.666   0.950  0.2680 -0.7867 -0.1949
 4753WAT     H130258   4.871   1.681   0.857 -2.1263 -0.4438  0.1360
 4753WAT     H230259   4.865   1.573   0.962 -0.5377 -0.5790  0.1241
 4754WAT      O30260   0.092   0.536   6.967 -0.4584 -0.1866  0.2725
 4754WAT     H130261   0.034   0.460   6.959 -1.4726  0.5849  0.0558
 4754WAT     H230262   0.141   0.539   6.885 -0.6582 -0.4096  0.1459
 4755WAT      O30263   2.455   1.533   6.828  0.6340 -0.4005 -0.0144
 4755WAT     H130264   2.386   1.468   6.818 -0.5442  0.8827 -0.4109
 4755WAT     H230265   2.524   1.487   6.876  0.9553 -2.7643 -2.4645
 4756WAT      O30266   5.918   1.712   7.676  0.5787  0.3930 -0.0068
 4756WAT     H130267   5.862   1.779   7.716 -0.1349  0.5499 -1.2202
 4756WAT     H230268   5.907   1.635   7.733  0.0972  0.7966  0.4619
 4757WAT      O30269   5.794   2.658   5.611  0.0527 -0.4349  0.5697
 4757WAT     H130270   5.782   2.721   5.539  0.4823 -0.9799  0.0051
 4757WAT     H230271   5.823   2.578   5.567 -0.6235 -1.0740  1.2583
 4758WAT      O30272   1.535   5.203   6.713  0.5279 -0.1361  0.4040
 4758WAT     H130273   1.581   5.276   6.754  0.2262  0.9666 -1.0951
 4758WAT     H230274   1.498   5.241   6.633 -0.8153 -1.6126  0.2750
 4759WAT      O30275   6.005   2.296   5.832  0.6363 -0.3839  0.5912
 4759WAT     H130276   5.985   2.299   5.738  2.3530 -0.5133  0.1862
 4759WAT     H230277   5.986   2.206   5.858  0.9159 -0.5606  0.1889
 4760WAT      O30278   5.904   2.709   7.266  0.2670 -0.6412 -0.0260
 4760WAT     H130279   5.886   2.742   7.177 -1.0005  0.6346  0.6495
 4760WAT     H230280   5.983   2.755   7.293 -0.1862  0.1247  0.0367
 4761WAT      O30281   0.287   5.957   0.880  0.5617 -0.5164  0.3378
 4761WAT     H130282   0.288   5.900   0.803 -0.6434 -0.2572  0.1001
 4761WAT     H230283   0.359   6.018   0.866 -0.2910  0.2178 -1.1605
 4762WAT      O30284   2.914   3.898   0.375  0.3907 -0.3580 -0.4779
 4762WAT     H130285   2.873   3.876   0.291 -1.2195  0.8565 -0.0450
 4762WAT     H230286   2.992   3.842   0.378  1.1420  0.3582 -3.2845
 4763WAT      O30287   3.945   0.777   0.638 -0.5636  0.3870  0.4904
 4763WAT     H130288   3.877   0.806   0.578  0.7472  2.9752  0.1026
 4763WAT     H230289   3.933   0.832   0.716  0.7950  0.6013  0.5725
 4764WAT      O30290   1.425   3.232   5.392  0.3201  0.1556 -0.6280
 4764WAT     H130291   1.516   3.228   5.422 -0.2405 -0.0154  1.1471
 4764WAT     H230292   1.429   3.280   5.309  1.9889  0.4070 -0.4266
 4765WAT      O30293   3.347   2.186   7.593 -0.2081 -0.0219 -0.2029
 4765WAT     H130294   3.311   2.200   7.680 -0.9515  0.9212 -0.6458
 4765WAT     H230295   3.292   2.239   7.535 -0.8478 -1.9737 -1.4906
 4766WAT      O30296   0.605   0.248   0.382  0.1163  0.0310 -0.3979
 4766WAT     H130297   0.671   0.209   0.439  1.6464  1.0879 -1.4039
 4766WAT     H230298   0.602   0.192   0.305  0.8877  0.7643 -0.9760
 4767WAT      O30299   1.810   3.623   7.560  0.0135 -0.0588  0.4237
 4767WAT     H130300   1.786   3.580   7.478  0.2427 -0.6925  0.6819
 4767WAT     H230301   1.893   3.668   7.540  0.4773 -0.8603  0.5183
 4768WAT      O30302   0.873   4.482   7.872  0.7312 -0.2699  0.1379
 4768WAT     H130303   0.811   4.410   7.880  0.2195  0.2136  0.6065
 4768WAT     H230304   0.910   4.492   7.960 -0.0092  0.7363  0.3544
 4769WAT      O30305   4.400   3.089   2.292 -0.0363 -0.3368 -0.4932
 4769WAT     H130306   4.388   3.067   2.385  2.0350 -1.2766 -0.3935
 4769WAT     H230307   4.311   3.093   2.257 -0.8280 -1.0575  1.2961
 4770WAT      O30308   1.301   1.223   7.429 -0.3265 -0.2912  0.2288
 4770WAT     H130309   1.225   1.186   7.384  0.9724 -2.9078 -0.0404
 4770WAT     H230310   1.353   1.264   7.360 -0.1031 -1.0865 -0.0875
 4771WAT      O30311   5.800   1.732   0.924  0.0399  0.2680  0.1174
 4771WAT     H130312   5.758   1.646   0.932  0.7507 -0.2943 -1.7365
 4771WAT     H230313   5.799   1.751   0.831  1.6386  1.3956  0.2933
 4772WAT      O30314   3.331   2.657   1.576 -0.2234  0.0771 -0.4995
 4772WAT     H130315   3.396   2.702   1.630 -0.4060 -0.3223  0.0517
 4772WAT     H230316   3.369   2.658   1.488  0.2249  0.4298 -0.3054
 4773WAT      O30317   3.791   3.699   0.596 -0.0246  0.7699 -0.0062
 4773WAT     H130318   3.842   3.780   0.594  0.0927  0.6823 -1.2492
 4773WAT     H230319   3.826   3.651   0.671  1.8778  0.6477 -0.9084
 4774WAT      O30320   2.296   2.081   7.147  0.1450 -0.4780  0.0716
 4774WAT     H130321   2.303   1.986   7.140 -1.4653 -0.7810  1.9300
 4774WAT     H230322   2.243   2.107   7.072 -1.2397 -1.3419  0.7172
 4775WAT      O30323   1.947   1.560   0.200 -0.3996  0.3646  0.3577
 4775WAT     H130324   2.007   1.549   0.274 -2.2023 -2.1606  1.6016
 4775WAT     H230325   1.918   1.471   0.179 -2.2657  1.2992 -1.4345
 4776WAT      O30326   1.712   5.921   1.072  0.5498  0.3002  0.0828
 4776WAT     H130327   1.617   5.929   1.085  0.1177 -0.1108 -2.2496
 4776WAT     H230328   1.748   5.914   1.160 -1.6011  0.3206  1.0341
 4777WAT      O30329   0.198   5.723   6.326 -0.1660 -0.3926 -0.0025
 4777WAT     H130330   0.281   5.695   6.364 -0.4453  0.3025  1.1416
 4777WAT     H230331   0.223   5.765   6.244  0.3953 -2.4114 -0.9478
 4778WAT      O30332   1.920   4.480   2.098  0.2181 -0.0228 -0.0181
 4778WAT     H130333   2.007   4.496   2.132  1.5918 -0.4943 -2.9792
 4778WAT     H230334   1.920   4.387   2.073 -1.5419 -0.3285  0.9384
 4779WAT      O30335   5.529   4.908   0.063  0.6703  0.8656  0.0220
 4779WAT     H130336   5.611   4.957   0.054  0.3546  1.3962 -0.0328
 4779WAT     H230337   5.476   4.938  -0.011  0.8495 -0.3361 -0.6102
 4780WAT      O30338   0.470   5.275   1.411 -0.2069  0.1476 -0.0072
 4780WAT     H130339   0.550   5.284   1.462 -1.5833 -0.1922  2.3717
 4780WAT     H230340   0.470   5.184   1.382  0.3460  0.1963 -0.1561
 4781WAT      O30341   5.429   5.842   6.988 -0.1350 -0.5886  0.5949
 4781WAT     H130342   5.433   5.794   7.071  0.6110 -1.2127  0.2088
 4781WAT     H230343   5.460   5.779   6.923  0.6741  0.3635  0.0514
 4782WAT      O30344   0.955   3.017   1.704 -0.0282  0.0196 -0.0837
 4782WAT     H130345   1.017   2.944   1.704 -0.2539 -0.1887 -1.3435
 4782WAT     H230346   1.002   3.089   1.746  1.3157  0.0773 -1.5951
 4783WAT      O30347   2.921   4.731   0.188  0.0073 -0.2960  0.4593
 4783WAT     H130348   2.836   4.713   0.228 -0.2121  0.3790  0.2908
 4783WAT     H230349   2.960   4.799   0.243 -0.4369  0.8860 -0.6393
 4784WAT      O30350   4.715   1.703   1.202 -0.3513 -0.2704  0.0865
 4784WAT     H130351   4.753   1.738   1.283 -0.3103  1.1037 -0.5003
 4784WAT     H230352   4.790   1.691   1.143 -0.6720  1.6840 -0.7955
 4785WAT      O30353   2.273   4.765   7.845  0.4340  0.0388  0.0890
 4785WAT     H130354   2.369   4.763   7.838  0.5540 -0.8859  1.5839
 4785WAT     H230355   2.255   4.841   7.901  0.0879  1.7251 -2.1646
 4786WAT      O30356   1.030   5.321   0.278  1.1257 -0.0314 -0.6779
 4786WAT     H130357   1.092   5.258   0.240 -0.4608 -0.9698 -1.7981
 4786WAT     H230358   1.033   5.396   0.219  0.2331 -0.6241 -1.4989
 4787WAT      O30359   5.456   1.727   6.343 -0.2480 -0.0527 -0.1943
 4787WAT     H130360   5.477   1.662   6.411  0.0217 -0.5249 -0.7228
 4787WAT     H230361   5.430   1.805   6.392  0.0541 -0.3524  0.4555
 4788WAT      O30362   6.037   3.690   6.396 -0.5026  0.4678  0.0710
 4788WAT     H130363   6.006   3.765   6.345  1.1348  1.1900  0.0650
 4788WAT     H230364   6.061   3.727   6.481  0.9775  0.1269 -0.1575
 4789WAT      O30365   0.711   1.208   1.293 -0.3609  0.1098  0.0487
 4789WAT     H130366   0.731   1.187   1.201 -0.0377 -2.7820  0.7004
 4789WAT     H230367   0.697   1.303   1.292  2.5131  0.7008 -2.4576
 4790WAT      O30368   4.093   5.750   7.197  0.0371  0.7495  0.0799
 4790WAT     H130369   4.058   5.707   7.120 -2.1941  1.9239  0.3713
 4790WAT     H230370   4.090   5.683   7.266 -0.1265  0.3795 -0.2889
 4791WAT      O30371   1.224   1.427   6.432  0.0406 -0.1208  0.5921
 4791WAT     H130372   1.205   1.463   6.518 -0.9579 -0.2980  0.4504
 4791WAT     H230373   1.180   1.485   6.370  0.7708  0.0205  0.1902
 4792WAT      O30374   4.471   1.563   0.375 -0.3966  0.3635 -0.1478
 4792WAT     H130375   4.429   1.597   0.297 -1.6612  0.4769  0.5614
 4792WAT     H230376   4.431   1.477   0.388  0.5314 -0.0803 -0.1843
 4793WAT      O30377   2.178   4.550   6.896  0.7352  0.2467  0.0479
 4793WAT     H130378   2.162   4.532   6.988 -1.3167  0.7865 -0.1485
 4793WAT     H230379   2.155   4.468   6.851  1.6881 -0.0016 -0.0184
 4794WAT      O30380   4.956   2.149   7.677  0.5117 -0.1086  0.1280
 4794WAT     H130381   4.904   2.222   7.710 -2.5945 -1.4181 -1.5264
 4794WAT     H230382   4.922   2.072   7.724  2.0055 -0.8430  0.0710
 4795WAT      O30383   0.491   3.596   6.453 -0.3990 -0.3407 -0.3658
 4795WAT     H130384   0.468   3.649   6.377 -0.0733 -1.4398 -1.2735
 4795WAT     H230385   0.493   3.657   6.526  0.4425  0.9647 -1.4431
 4796WAT      O30386   2.095   4.323   5.990  0.7351  0.4880 -0.0783
 4796WAT     H130387   2.081   4.260   5.920 -1.0035 -0.0641  0.6922
 4796WAT     H230388   2.182   4.358   5.975  1.2188 -1.1338 -1.2944
 4797WAT      O30389   0.648   2.770   7.766 -0.2866 -0.2840 -0.6413
 4797WAT     H130390   0.635   2.692   7.819 -3.6370  0.7869  0.3672
 4797WAT     H230391   0.739   2.795   7.782  0.2626 -2.7856  0.6294
 4798WAT      O30392   2.929   0.157   7.682 -0.8218 -0.1749 -0.0303
 4798WAT     H130393   2.934   0.065   7.655  0.0588  0.3621 -1.8750
 4798WAT     H230394   2.836   0.177   7.683 -0.9609 -0.3117 -2.7010
 4799WAT      O30395   3.112   2.359   6.472  0.2175  0.0131  0.4693
 4799WAT     H130396   3.203   2.329   6.477  0.5050  0.5303 -1.0503
 4799WAT     H230397   3.114   2.449   6.505  0.1520 -0.1576  0.9433
 4800WAT      O30398   1.278   2.811   1.407  0.1301  0.1098 -0.1063
 4800WAT     H130399   1.266   2.854   1.322 -1.6764 -0.1687 -0.0286
 4800WAT     H230400   1.231   2.867   1.469  0.3281 -0.3773  0.4928
 4801WAT      O30401   5.412   0.775   1.149  0.3544  0.1807  0.0259
 4801WAT     H130402   5.403   0.699   1.093  0.3788  0.5312 -0.4590
 4801WAT     H230403   5.444   0.844   1.091  0.5030  0.5125  0.4952
 4802WAT      O30404   2.923   5.544   7.128  0.3353  0.2618  0.1199
 4802WAT     H130405   2.953   5.503   7.209  0.1903 -1.0651 -0.4679
 4802WAT     H230406   2.935   5.638   7.143  2.7282 -0.0618  0.7448
 4803WAT      O30407   0.410   2.639   7.660  0.0071 -0.1395  0.2718
 4803WAT     H130408   0.462   2.696   7.717 -2.7107  1.8730  0.9164
 4803WAT     H230409   0.444   2.655   7.572 -0.1053  1.8534  0.5616
 4804WAT      O30410   5.336   2.266   2.079  0.3209 -0.4135  0.2853
 4804WAT     H130411   5.400   2.234   2.016  0.4444  0.4324 -0.0309
 4804WAT     H230412   5.251   2.238   2.043  0.5288 -2.5745  1.3014
 4805WAT      O30413   5.265   3.744   0.995 -0.4650 -0.1433  0.6990
 4805WAT     H130414   5.204   3.734   1.068 -0.4212  0.6598  0.8586
 4805WAT     H230415   5.344   3.781   1.035 -0.4140  0.2245  0.2633
 4806WAT      O30416   2.516   4.476   6.804 -0.0015 -0.5066  0.3702
 4806WAT     H130417   2.514   4.398   6.749  0.5668  0.4065 -0.9928
 4806WAT     H230418   2.575   4.453   6.876  0.4017 -1.2371 -0.1770
 4807WAT      O30419   5.203   5.334   0.548 -0.2730 -0.2049  0.5692
 4807WAT     H130420   5.258   5.256   0.553  0.0173 -0.1308 -0.8680
 4807WAT     H230421   5.114   5.302   0.559 -0.1079 -0.6588  0.6055
 4808WAT      O30422   2.704   0.273   0.089 -0.2648 -0.6287 -0.0515
 4808WAT     H130423   2.622   0.252   0.134 -0.5145  0.5064  0.0454
 4808WAT     H230424   2.694   0.233   0.003 -0.7374 -0.8589  0.1024
 4809WAT      O30425   5.419   3.544   1.338  0.1314  0.4436  0.1308
 4809WAT     H130426   5.396   3.478   1.272 -1.5613 -0.4045  1.5208
 4809WAT     H230427   5.515   3.542   1.339  0.1652 -2.4327  0.5103
 4810WAT      O30428   4.889   4.060   6.047  0.0098  0.8167  0.0837
 4810WAT     H130429   4.949   4.101   5.984 -0.1060  0.7411 -0.0801
 4810WAT     H230430   4.892   3.967   6.026  0.8144  0.6377  0.9198
 4811WAT      O30431   0.314   5.883   2.560  0.0366 -0.1425 -0.7324
 4811WAT     H130432   0.321   5.806   2.504  2.4789  1.6432 -3.1380
 4811WAT     H230433   0.248   5.937   2.518 -0.8959 -0.4005  0.3517
 4812WAT      O30434   6.045   3.603   0.062 -0.7954 -0.5096 -0.0736
 4812WAT     H130435   6.114   3.551   0.103 -0.3998 -0.5455 -0.7702
 4812WAT     H230436   5.981   3.540   0.031 -0.8093 -0.5175 -0.0294
 4813WAT      O30437   5.199   0.184   7.679  0.4374  0.4959 -0.1148
 4813WAT     H130438   5.287   0.149   7.696  0.0507 -1.4397 -1.6663
 4813WAT     H230439   5.154   0.113   7.632 -1.5515  1.9081 -0.4626
 4814WAT      O30440   6.122   5.000   0.162 -0.0741 -0.6761  0.3177
 4814WAT     H130441   6.216   5.015   0.158 -0.3616  0.9613 -2.3460
 4814WAT     H230442   6.109   4.915   0.119  0.0964 -0.3376 -0.4087
 4815WAT      O30443   4.636   4.479   6.903  0.0860 -0.0779  0.0066
 4815WAT     H130444   4.651   4.399   6.953  2.4490 -0.2434 -0.8192
 4815WAT     H230445   4.683   4.464   6.821 -0.3373  1.7397 -0.6033
 4816WAT      O30446   0.136   4.755   1.538 -0.4911 -0.1530 -0.5241
 4816WAT     H130447   0.191   4.710   1.602 -0.4593  0.3094 -0.2273
 4816WAT     H230448   0.046   4.732   1.564 -0.5172  0.7056  0.2032
 4817WAT      O30449   4.497   6.119   1.356 -0.5216  0.2625 -0.5952
 4817WAT     H130450   4.497   6.126   1.452 -1.0725 -0.9946 -0.4818
 4817WAT     H230451   4.479   6.208   1.326 -2.1212  0.3642  0.5237
 4818WAT      O30452   3.847   3.013   0.329  0.5637 -0.1034 -0.0275
 4818WAT     H130453   3.851   3.027   0.234  0.1847 -0.6985 -0.1364
 4818WAT     H230454   3.924   2.959   0.348 -0.0342 -1.0410 -0.1991
 4819WAT      O30455   3.436   6.164   1.740 -0.4336 -0.1488 -1.0324
 4819WAT     H130456   3.513   6.208   1.705 -0.1838  1.0848  0.9555
 4819WAT     H230457   3.468   6.080   1.772  0.3103  0.7442  0.6455
 4820WAT      O30458   1.570   5.080   5.829  0.3417  0.4721  0.4974
 4820WAT     H130459   1.493   5.041   5.871  0.0127  0.7846  0.1965
 4820WAT     H230460   1.535   5.155   5.781  0.4057 -0.8348 -1.7390
 4821WAT      O30461   4.691   1.926   7.063 -0.8209  0.0386  0.4502
 4821WAT     H130462   4.703   1.835   7.091  3.5418 -0.3558 -1.9699
 4821WAT     H230463   4.723   1.978   7.137 -1.1523 -0.4443  0.9434
 4822WAT      O30464   4.208   2.988   0.080 -0.3877 -0.6933  0.1720
 4822WAT     H130465   4.136   3.048   0.098 -1.5477 -1.4108 -1.6943
 4822WAT     H230466   4.204   2.924   0.151  0.0136  0.6571  1.4401
 4823WAT      O30467   3.044   0.351   7.892 -0.0818  0.1430 -0.0376
 4823WAT     H130468   3.054   0.258   7.875 -0.0245 -0.0266  0.8464
 4823WAT     H230469   2.972   0.356   7.956  1.4647  0.4750  1.7826
 4824WAT      O30470   5.196   2.755   1.207 -0.4085  0.0796  0.4679
 4824WAT     H130471   5.216   2.818   1.276  0.6825  0.0691  0.1848
 4824WAT     H230472   5.110   2.719   1.230 -0.1000  0.1413  1.7690
 4825WAT      O30473   1.727   4.155   6.846  0.6390 -0.3806 -0.5395
 4825WAT     H130474   1.768   4.132   6.762  2.1832  0.3270 -0.0118
 4825WAT     H230475   1.763   4.241   6.867  0.4583 -0.6562  0.9811
 4826WAT      O30476   5.448   3.441   0.312  0.0322 -0.2975 -0.5336
 4826WAT     H130477   5.419   3.531   0.298 -0.6939 -0.0761  1.8956
 4826WAT     H230478   5.380   3.386   0.272 -0.3873  0.2394 -0.5599
 4827WAT      O30479   5.175   5.151   0.162 -0.5065 -0.0816 -0.1851
 4827WAT     H130480   5.138   5.128   0.077  0.1383 -0.6704 -0.3151
 4827WAT     H230481   5.130   5.231   0.187 -2.4781 -1.1883  0.0445
 4828WAT      O30482   3.143   0.410   2.224 -0.6094  0.1162 -0.8064
 4828WAT     H130483   3.233   0.436   2.202  0.3966 -2.2780  0.0544
 4828WAT     H230484   3.152   0.361   2.307 -2.6506 -0.4750 -0.8757
 4829WAT      O30485   2.584   4.830   2.147  0.0340 -0.1789 -0.4076
 4829WAT     H130486   2.648   4.896   2.172 -0.3247  0.2534 -0.6348
 4829WAT     H230487   2.637   4.759   2.110  0.4236 -0.0617 -0.0747
 4830WAT      O30488   2.521   1.790   5.954 -0.3580  0.1807 -0.4600
 4830WAT     H130489   2.607   1.762   5.920  0.3901  0.0672  1.4012
 4830WAT     H230490   2.534   1.881   5.980  0.2765 -0.7338  2.8994
 4831WAT      O30491   6.094   4.449   1.985  0.5283 -0.5513  0.3044
 4831WAT     H130492   6.049   4.531   1.965  1.6308  0.1006  0.3972
 4831WAT     H230493   6.126   4.417   1.901 -0.4984 -1.2803  0.1653
 4832WAT      O30494   1.964   4.916   5.395  0.1042  0.1673 -0.4741
 4832WAT     H130495   2.043   4.865   5.373  1.2530  1.5016  0.4329
 4832WAT     H230496   1.916   4.861   5.456  1.0532 -0.0687  0.0709
 4833WAT      O30497   3.750   1.983   5.546 -0.5433 -0.0135 -0.5470
 4833WAT     H130498   3.660   2.013   5.556 -1.2638 -1.8741 -1.1510
 4833WAT     H230499   3.803   2.056   5.578 -2.2397  1.2501 -0.4973
 4834WAT      O30500   2.435   3.539   6.133 -0.1908  0.2291 -0.0163
 4834WAT     H130501   2.354   3.543   6.182  0.1475  0.9068  0.4929
 4834WAT     H230502   2.410   3.566   6.044 -0.7549 -0.7869 -0.1856
 4835WAT      O30503   4.949   5.469   6.669  0.0553 -0.3549  0.0001
 4835WAT     H130504   4.962   5.488   6.576 -0.0741 -0.5639 -0.0602
 4835WAT     H230505   5.037   5.472   6.706  0.5720 -3.4501 -0.6992
 4836WAT      O30506   2.615   0.223   6.663  0.9218 -0.0528  0.1796
 4836WAT     H130507   2.611   0.291   6.730  0.9526  0.3570 -0.2315
 4836WAT     H230508   2.597   0.269   6.581  0.4417 -0.6254 -0.0463
 4837WAT      O30509   2.569   4.170   7.145  0.2089  0.2847 -0.5654
 4837WAT     H130510   2.613   4.236   7.199  1.8766 -1.4599  0.3194
 4837WAT     H230511   2.617   4.172   7.062  0.4551  0.0153 -0.4337
 4838WAT      O30512   4.609   4.117   0.835  0.6464  0.3892  0.3271
 4838WAT     H130513   4.637   4.052   0.771  2.1505  1.5588 -0.2529
 4838WAT     H230514   4.673   4.111   0.905  1.5279  2.0482 -0.2935
 4839WAT      O30515   2.169   1.380   7.944 -0.1830 -0.2422 -0.5725
 4839WAT     H130516   2.100   1.334   7.896 -0.5592 -0.2188 -0.0666
 4839WAT     H230517   2.215   1.311   7.992  0.2611 -0.2788 -1.0449
 4840WAT      O30518   3.397   0.892   5.670 -0.2816 -0.3335 -0.0072
 4840WAT     H130519   3.433   0.804   5.684  2.0060  0.5359 -0.0880
 4840WAT     H230520   3.458   0.950   5.715 -0.4532  1.4102 -1.9064
 4841WAT      O30521   3.888   2.903   6.999 -0.1993 -0.4771 -0.5301
 4841WAT     H130522   3.902   2.809   7.006 -2.6128 -1.0208 -2.1621
 4841WAT     H230523   3.906   2.924   6.907 -0.2639  0.5477 -0.3268
 4842WAT      O30524   1.187   4.638   1.524  0.2805  0.3079  0.3151
 4842WAT     H130525   1.139   4.680   1.595 -1.9631 -1.0069 -0.2919
 4842WAT     H230526   1.167   4.691   1.447 -1.6146 -1.0845 -0.2341
 4843WAT      O30527   0.985   1.889   7.072  0.4195 -0.1922 -0.0341
 4843WAT     H130528   0.942   1.926   7.149 -1.0196  0.7406 -1.2154
 4843WAT     H230529   1.021   1.965   7.026  0.8418 -0.6797 -0.5195
 4844WAT      O30530   1.811   4.119   7.166  0.0074  0.3105 -0.2248
 4844WAT     H130531   1.810   4.136   7.072 -1.3103 -0.3317 -0.3537
 4844WAT     H230532   1.878   4.052   7.178 -1.9321 -1.9545 -1.2040
 4845WAT      O30533   2.101   6.047   1.398 -0.4131  0.3943  0.3754
 4845WAT     H130534   2.184   6.035   1.352 -1.0990 -1.6025 -0.4559
 4845WAT     H230535   2.123   6.039   1.491  0.4973  1.1401  0.2335
 4846WAT      O30536   5.378   6.077   7.706 -0.1309 -0.2699  0.0820
 4846WAT     H130537   5.386   6.020   7.783 -0.5622  1.0806  1.1750
 4846WAT     H230538   5.439   6.149   7.723  0.5440 -0.4586 -1.3601
 4847WAT      O30539   5.988   1.935   6.649 -0.4925 -0.3765 -0.4306
 4847WAT     H130540   6.070   1.906   6.610  0.8506  1.1764  1.0240
 4847WAT     H230541   5.969   2.019   6.606 -1.4020 -0.7775 -0.8392
 4848WAT      O30542   4.737   3.002   5.740 -0.5166  0.5166 -0.2433
 4848WAT     H130543   4.735   2.924   5.684  1.0571  0.7793 -0.7212
 4848WAT     H230544   4.645   3.021   5.758 -0.9502 -1.3460 -0.2595
 4849WAT      O30545   0.637   4.091   0.688 -0.1920 -0.3904  0.3595
 4849WAT     H130546   0.575   4.135   0.746  1.1556  1.3501  0.5740
 4849WAT     H230547   0.587   4.020   0.648 -2.4348  1.2106  0.1576
 4850WAT      O30548   2.720   5.721   6.010  0.2356  0.8827  0.0755
 4850WAT     H130549   2.690   5.760   5.928 -0.2746  0.3433  0.0008
 4850WAT     H230550   2.768   5.791   6.054  0.0799  1.3275 -0.4536
 4851WAT      O30551   5.722   4.559   0.237 -0.0312  0.4681 -0.1391
 4851WAT     H130552   5.707   4.465   0.226  1.2287  0.2359 -0.0651
 4851WAT     H230553   5.669   4.584   0.313  0.1422 -0.3203  0.2460
 4852WAT      O30554   5.596   4.720   0.432 -0.1149 -0.1340 -0.8645
 4852WAT     H130555   5.527   4.748   0.492 -1.4981 -2.3462 -1.3076
 4852WAT     H230556   5.667   4.691   0.489 -0.0207  0.9994 -0.3811
 4853WAT      O30557   2.028   4.183   0.119 -0.0702  0.0540  0.2525
 4853WAT     H130558   1.990   4.224   0.042 -2.3141  0.0333  1.2759
 4853WAT     H230559   1.996   4.235   0.193  0.9513 -0.6831  1.2644
 4854WAT      O30560   5.599   5.497   7.080  0.1073 -0.8014  0.3237
 4854WAT     H130561   5.551   5.524   7.002  0.5861 -2.4516 -0.5951
 4854WAT     H230562   5.652   5.573   7.103 -0.4561 -0.0969 -0.6183
 4855WAT      O30563   0.391   3.750   6.249  0.1679  0.3861  0.4744
 4855WAT     H130564   0.428   3.836   6.266 -1.7042  1.5476 -0.9785
 4855WAT     H230565   0.306   3.751   6.292 -0.8846  0.1647 -1.5054
 4856WAT      O30566   1.742   0.601   1.434 -0.5233  0.4132 -0.3051
 4856WAT     H130567   1.820   0.588   1.487 -1.2378 -2.4058  0.2477
 4856WAT     H230568   1.716   0.692   1.450  1.8534  1.0027  0.5201
 4857WAT      O30569   2.301   3.312   5.959  0.6410  0.7065 -0.1468
 4857WAT     H130570   2.258   3.396   5.947 -0.0546  0.2692 -0.7873
 4857WAT     H230571   2.379   3.317   5.904 -0.6311  0.0760 -2.1095
 4858WAT      O30572   0.788   1.125   6.632  0.8078 -0.7803  0.3152
 4858WAT     H130573   0.860   1.166   6.584  2.0131 -1.5910  1.3741
 4858WAT     H230574   0.760   1.192   6.695 -0.2512 -0.0033 -0.9217
 4859WAT      O30575   1.890   5.350   0.516 -0.1295 -0.2113 -0.1446
 4859WAT     H130576   1.908   5.278   0.455 -3.4579 -0.9403 -0.5166
 4859WAT     H230577   1.835   5.310   0.583  0.3120  1.4123  1.2495
 4860WAT      O30578   5.602   5.634   6.411 -0.0710  0.0861  0.0120
 4860WAT     H130579   5.533   5.687   6.450  0.4044  0.1105  0.8402
 4860WAT     H230580   5.602   5.657   6.318  0.6506  2.1280  0.4705
 4861WAT      O30581   6.043   1.526   1.336 -0.4992  0.0199  0.2091
 4861WAT     H130582   6.032   1.505   1.429  0.8266 -0.4139  0.2848
 4861WAT     H230583   6.065   1.443   1.294  2.6389  0.7426  0.1548
 4862WAT      O30584   1.095   0.465   6.453  0.5465  0.2799 -0.4599
 4862WAT     H130585   1.148   0.530   6.407 -0.2969  2.2440  1.1427
 4862WAT     H230586   1.005   0.499   6.448  0.1220 -0.5841  0.7121
 4863WAT      O30587   5.390   0.203   6.705 -0.1073  0.0956 -0.3940
 4863WAT     H130588   5.431   0.274   6.656 -2.0767  0.1621 -2.1532
 4863WAT     H230589   5.383   0.235   6.795 -0.3634  1.8802 -1.0153
 4864WAT      O30590   5.741   4.725   6.487  0.2401 -0.1793 -0.3327
 4864WAT     H130591   5.780   4.803   6.448  0.1677  0.6593  1.1859
 4864WAT     H230592   5.811   4.685   6.539  0.1227 -0.8215 -0.6531
 4865WAT      O30593   5.709   1.756   6.657  0.2174 -0.2980  0.9348
 4865WAT     H130594   5.758   1.756   6.739  0.3798  1.5985  0.8735
 4865WAT     H230595   5.777   1.759   6.589  0.0525 -0.5731  0.7544
 4866WAT      O30596   1.853   1.285   0.195 -0.4174  0.0437 -0.3831
 4866WAT     H130597   1.768   1.329   0.198 -0.3102  0.2341  2.8777
 4866WAT     H230598   1.863   1.259   0.103 -3.5711  0.7916 -1.0511
 4867WAT      O30599   3.722   5.707   0.519  0.2434 -0.1783  0.1598
 4867WAT     H130600   3.667   5.763   0.465  0.3940  0.2623  0.4625
 4867WAT     H230601   3.772   5.767   0.574  1.8253 -0.4957 -0.8504
 4868WAT      O30602   1.931   2.616   0.329 -0.8733  0.0841  0.0528
 4868WAT     H130603   1.953   2.609   0.236  0.8932 -4.5472  0.5406
 4868WAT     H230604   1.839   2.591   0.334 -0.7735 -0.4380 -0.4606
 4869WAT      O30605   3.965   1.836   5.434 -0.2816 -0.6676 -0.0562
 4869WAT     H130606   4.032   1.897   5.463 -0.0759 -1.9212  2.2899
 4869WAT     H230607   3.884   1.885   5.439  0.0527 -0.1501  0.3376
 4870WAT      O30608   0.732   3.417   6.037 -0.4251  0.6556 -0.2035
 4870WAT     H130609   0.684   3.498   6.059 -0.4132  1.0644 -1.5930
 4870WAT     H230610   0.703   3.354   6.103 -0.9184  1.6164  0.5312
 4871WAT      O30611   0.047   1.791   6.842  0.0458 -0.1342  0.3535
 4871WAT     H130612   0.035   1.856   6.911  1.0213  1.1431 -0.6343
 4871WAT     H230613   0.125   1.742   6.868 -0.6549 -0.9178  1.0660
 4872WAT      O30614   1.621   4.760   1.378  0.4066  0.4758 -0.0541
 4872WAT     H130615   1.622   4.665   1.360 -0.6273  0.0444  1.9218
 4872WAT     H230616   1.533   4.788   1.351  0.8360  0.9783 -0.9791
 4873WAT      O30617   2.745   0.643   2.072 -0.3399  0.5333  0.4576
 4873WAT     H130618   2.798   0.717   2.099  1.0456 -0.1439 -0.2965
 4873WAT     H230619   2.722   0.662   1.981 -0.6180  0.3927  0.4963
 4874WAT      O30620   3.753   2.492   5.524 -0.7748  0.4851  0.1082
 4874WAT     H130621   3.778   2.400   5.529  0.4161  0.8266  1.0749
 4874WAT     H230622   3.657   2.491   5.528 -0.8432 -0.7594 -1.1400
 4875WAT      O30623   1.096   0.803   0.379 -0.4370  0.6190 -0.0162
 4875WAT     H130624   1.075   0.892   0.349 -0.0639  1.1526  1.2153
 4875WAT     H230625   1.073   0.803   0.472 -0.3364 -0.5501  0.0260
 4876WAT      O30626   1.097   4.525   5.873 -0.1429 -0.3291 -0.0922
 4876WAT     H130627   1.045   4.469   5.815 -0.9489 -1.1132  1.3555
 4876WAT     H230628   1.173   4.549   5.820 -2.0895  1.1753 -2.4464
 4877WAT      O30629   1.642   4.544   0.332 -0.1553 -0.4181  0.2033
 4877WAT     H130630   1.707   4.479   0.360  1.0900  0.3169 -0.8834
 4877WAT     H230631   1.608   4.511   0.250  0.2423  0.1309 -0.1879
 4878WAT      O30632   1.555   2.860   6.215  0.0153 -0.1225  0.3125
 4878WAT     H130633   1.550   2.809   6.296  1.9796 -0.5583  0.1907
 4878WAT     H230634   1.509   2.807   6.151  2.9109 -2.3785 -0.0710
 4879WAT      O30635   1.624   2.426   1.064 -0.0358 -0.1973  0.3412
 4879WAT     H130636   1.680   2.387   1.131  1.7176 -1.3360 -1.6545
 4879WAT     H230637   1.560   2.357   1.044 -0.6291  0.1829  0.8853
 4880WAT      O30638   4.648   5.259   6.883  0.2059  0.1636 -0.3295
 4880WAT     H130639   4.684   5.288   6.966 -0.2068  1.1974 -0.5039
 4880WAT     H230640   4.726   5.242   6.828  0.4648 -0.1243  0.1197
 4881WAT      O30641   4.721   2.180   0.128  0.2815 -0.5019  0.2401
 4881WAT     H130642   4.779   2.255   0.140 -0.0052 -0.0623 -0.9580
 4881WAT     H230643   4.697   2.153   0.217  0.8134  0.4904  0.6973
 4882WAT      O30644   3.311   2.989   7.233  0.1885  0.4626  0.1918
 4882WAT     H130645   3.278   2.933   7.162  1.0825 -1.0779  0.9549
 4882WAT     H230646   3.232   3.033   7.266 -0.3924  0.4114 -1.0440
 4883WAT      O30647   5.357   1.011   0.685 -0.5371 -0.1668  0.1953
 4883WAT     H130648   5.322   1.086   0.638  0.4003  0.0167 -0.2294
 4883WAT     H230649   5.433   0.983   0.634  0.0343 -0.4567  1.1724
 4884WAT      O30650   5.637   5.400   6.535  0.8384  0.5947  0.2282
 4884WAT     H130651   5.727   5.372   6.555  0.6963 -2.4734 -2.4962
 4884WAT     H230652   5.648   5.477   6.479  1.9439 -0.3514 -0.9439
 4885WAT      O30653   3.483   4.290   0.712 -0.0155 -0.1143  1.0466
 4885WAT     H130654   3.543   4.350   0.667  0.2472 -0.3300  1.1125
 4885WAT     H230655   3.409   4.281   0.651 -0.0561  0.2726  1.0323
 4886WAT      O30656   6.200   1.881   0.198 -0.1115 -0.5120 -0.1368
 4886WAT     H130657   6.114   1.854   0.164 -0.1010 -0.5470 -0.1347
 4886WAT     H230658   6.262   1.846   0.134 -0.1611  0.4608 -0.7519
 4887WAT      O30659   5.563   1.000   6.543  0.0074  0.1371  0.2457
 4887WAT     H130660   5.468   1.002   6.532 -0.0670 -0.9677  0.5792
 4887WAT     H230661   5.584   0.907   6.552  1.0871  0.3911  0.4481
 4888WAT      O30662   3.431   2.953   0.436  0.0007  0.2068  0.0609
 4888WAT     H130663   3.401   3.014   0.369 -0.4261  0.9151  0.8740
 4888WAT     H230664   3.437   2.868   0.391  0.9417  0.9045 -1.1750
 4889WAT      O30665   5.661   2.643   1.644 -0.5664 -0.0582 -0.3580
 4889WAT     H130666   5.687   2.568   1.699 -2.1573  0.0960  0.6806
 4889WAT     H230667   5.674   2.612   1.555  0.4163 -0.9632  0.0698
 4890WAT      O30668   3.568   4.678   6.384  0.1216 -0.2497  0.6676
 4890WAT     H130669   3.565   4.711   6.474 -0.0323 -1.8890  1.3146
 4890WAT     H230670   3.513   4.600   6.386  0.4201 -0.5250 -0.7673
 4891WAT      O30671   4.316   4.105   6.768  0.7192 -0.5388 -0.0766
 4891WAT     H130672   4.381   4.110   6.698  0.1720  1.0621 -0.5056
 4891WAT     H230673   4.332   4.183   6.821 -0.5460 -0.3680  0.0891
 4892WAT      O30674   2.993   0.361   1.950  0.0824  0.0309 -0.3363
 4892WAT     H130675   3.071   0.363   1.894  0.0921  0.0917 -0.3200
 4892WAT     H230676   3.028   0.359   2.039  0.0963 -1.2181 -0.3417
 4893WAT      O30677   1.684   5.289   0.250 -0.2201 -0.1954  0.0388
 4893WAT     H130678   1.595   5.308   0.280  0.1974  0.3092  0.9947
 4893WAT     H230679   1.727   5.374   0.247  0.2881 -0.4607 -0.2567
 4894WAT      O30680   2.174   4.545   0.449  1.0647 -0.3832  0.2205
 4894WAT     H130681   2.129   4.509   0.373 -0.5225 -0.7169  1.2672
 4894WAT     H230682   2.225   4.471   0.484 -0.0590 -0.9029  0.8103
 4895WAT      O30683   1.383   4.303   0.375 -0.3006 -0.0921  0.2573
 4895WAT     H130684   1.380   4.377   0.435 -1.5134  0.7041 -0.7453
 4895WAT     H230685   1.442   4.331   0.305 -1.7857  0.4811 -0.7972
 4896WAT      O30686   5.220   1.102   0.256  0.2659  0.1310 -0.0466
 4896WAT     H130687   5.154   1.152   0.304 -0.2289 -0.7514  0.2353
 4896WAT     H230688   5.268   1.167   0.205 -0.8842  0.7869 -0.3254
 4897WAT      O30689   0.484   0.377   5.815  0.1683 -0.0598 -0.1556
 4897WAT     H130690   0.547   0.370   5.886 -0.8712 -1.5234  0.6760
 4897WAT     H230691   0.422   0.445   5.844 -0.9160 -1.4529  0.9306
 4898WAT      O30692   0.378   5.454   1.610  0.6829  0.1517  0.3857
 4898WAT     H130693   0.364   5.375   1.557  1.9763  1.9508 -2.9344
 4898WAT     H230694   0.291   5.490   1.623  0.1779 -1.2692  1.0504
 4899WAT      O30695   0.220   4.187   7.049  0.0438  0.2550  0.4134
 4899WAT     H130696   0.242   4.252   6.983  2.1643 -0.5079  0.2765
 4899WAT     H230697   0.178   4.237   7.119  0.0323  1.4666 -0.4263
 4900WAT      O30698   0.092   5.061   2.459 -0.0307  0.0031 -0.2198
 4900WAT     H130699   0.057   5.073   2.370 -0.3889  1.5611  0.1100
 4900WAT     H230700   0.023   5.013   2.505 -0.2832  0.0927 -0.5001
 4901WAT      O30701   1.159   3.795   6.211 -0.6246 -0.2536 -0.3122
 4901WAT     H130702   1.092   3.841   6.263  0.5554  1.1449  0.0315
 4901WAT     H230703   1.197   3.863   6.155 -0.7303 -1.4053 -1.8554
 4902WAT      O30704   1.633   1.072   6.571  0.1073  0.5153  0.8398
 4902WAT     H130705   1.563   1.011   6.592 -0.8459  0.7708 -1.3263
 4902WAT     H230706   1.713   1.026   6.594 -0.6776 -0.6035  1.4276
 4903WAT      O30707   3.506   5.406   2.329 -0.1039 -0.6573  0.2961
 4903WAT     H130708   3.428   5.407   2.385 -0.0006 -0.7992  0.4450
 4903WAT     H230709   3.559   5.334   2.364  1.4967  1.2451  2.0907
 4904WAT      O30710   5.015   2.089   5.886  0.2207 -0.0268  0.8610
 4904WAT     H130711   4.973   2.070   5.970 -1.3131 -0.0666  0.1325
 4904WAT     H230712   5.062   2.171   5.901  1.1906 -0.7781  2.1381
 4905WAT      O30713   0.914   3.322   6.429  0.2711  0.1207 -0.0547
 4905WAT     H130714   0.905   3.374   6.509  2.5720 -0.2394  0.5104
 4905WAT     H230715   0.934   3.386   6.361  1.4174  0.1652  0.3055
 4906WAT      O30716   4.772   4.406   6.155  0.4395  0.1773 -0.1650
 4906WAT     H130717   4.802   4.416   6.245 -0.3919 -1.7699  0.3827
 4906WAT     H230718   4.820   4.473   6.106  1.1885  1.0320  1.6391
 4907WAT      O30719   1.912   4.595   7.424 -0.3622  0.0561 -0.3110
 4907WAT     H130720   1.855   4.652   7.373 -1.9771  0.3851  1.7151
 4907WAT     H230721   1.927   4.643   7.506 -0.6677 -1.8148  0.9095
 4908WAT      O30722   4.028   4.058   6.413  0.0440 -0.5021 -0.0446
 4908WAT     H130723   4.102   4.112   6.387  0.0186 -0.5406 -0.1996
 4908WAT     H230724   3.965   4.119   6.450  0.2118 -0.4861  0.2211
 4909WAT      O30725   2.454   5.075   6.471  0.3557 -0.1113 -0.5029
 4909WAT     H130726   2.395   5.143   6.438  0.6163 -0.5099 -1.8856
 4909WAT     H230727   2.396   5.009   6.509  0.0903  0.7842  0.6861
 4910WAT      O30728   5.154   5.192   7.184 -0.2577  0.0769 -0.2931
 4910WAT     H130729   5.201   5.247   7.121 -2.6817 -0.0668 -2.3927
 4910WAT     H230730   5.198   5.209   7.268  1.5080  2.2466 -1.5322
 4911WAT      O30731   3.091   2.441   1.030  0.0175  0.3360 -0.1665
 4911WAT     H130732   3.092   2.346   1.024 -1.9718  0.2245  0.4949
 4911WAT     H230733   3.123   2.459   1.119 -0.2128  0.2580 -0.0686
 4912WAT      O30734   3.574   4.804   0.523 -0.7372  0.5757 -0.1663
 4912WAT     H130735   3.653   4.857   0.530  0.4146 -0.9227 -1.1569
 4912WAT     H230736   3.579   4.764   0.436 -1.7352 -0.8249  0.3689
 4913WAT      O30737   3.730   2.184   2.384 -0.6334 -0.4550 -0.9130
 4913WAT     H130738   3.654   2.142   2.425 -0.7911  0.3467 -0.3678
 4913WAT     H230739   3.720   2.164   2.291 -1.9392  0.2894 -0.9567
 4914WAT      O30740   1.257   0.077   6.215  0.1183  0.5559  0.2329
 4914WAT     H130741   1.196   0.033   6.156 -1.1457  1.7261  0.6301
 4914WAT     H230742   1.228   0.168   6.216  1.2151  0.9191  1.2884
 4915WAT      O30743   5.276   2.541   6.735 -0.1422 -0.1336 -0.3568
 4915WAT     H130744   5.298   2.633   6.723  0.0621 -0.2175 -0.6530
 4915WAT     H230745   5.194   2.541   6.783  0.0047  0.2010 -0.1043
 4916WAT      O30746   2.684   4.858   0.522 -0.1754 -0.3731  0.0266
 4916WAT     H130747   2.641   4.836   0.439 -0.5617  0.2893  0.0493
 4916WAT     H230748   2.626   4.921   0.563  0.7581  0.4419  0.1101
 4917WAT      O30749   1.665   3.740   6.563 -0.0839  1.4434 -0.4986
 4917WAT     H130750   1.606   3.808   6.530  0.3442  2.6760  1.1792
 4917WAT     H230751   1.651   3.740   6.657  1.5679  0.7723 -0.2309
 4918WAT      O30752   0.544   5.736   6.203  0.1260 -0.3130  0.1873
 4918WAT     H130753   0.556   5.830   6.218  1.8911 -0.7231  1.7987
 4918WAT     H230754   0.571   5.722   6.113  4.1358  0.2158  1.0864
 4919WAT      O30755   4.595   2.797   1.574 -0.0764 -0.3495  0.1584
 4919WAT     H130756   4.632   2.761   1.654  2.6088  0.8659 -0.4202
 4919WAT     H230757   4.639   2.748   1.504 -0.7112  0.1168 -0.5736
 4920WAT      O30758   4.687   2.656   1.780 -0.4310 -0.0632 -0.0095
 4920WAT     H130759   4.705   2.684   1.870 -2.0660 -0.6410  0.5240
 4920WAT     H230760   4.696   2.561   1.781  1.9417  0.0612 -1.0803
 4921WAT      O30761   0.639   2.699   2.427  0.8414  0.0689 -0.5547
 4921WAT     H130762   0.662   2.790   2.409  0.4343 -0.0456 -1.7498
 4921WAT     H230763   0.723   2.653   2.429  0.9605  0.1643 -1.8867
 4922WAT      O30764   5.316   3.562   1.861 -0.0877  0.5941 -0.0089
 4922WAT     H130765   5.234   3.529   1.898 -0.6175  1.6712 -0.1841
 4922WAT     H230766   5.362   3.483   1.833 -0.5308 -0.1121  1.1730
 4923WAT      O30767   3.022   3.874   5.516  0.2128 -0.2765  0.3531
 4923WAT     H130768   2.961   3.889   5.588 -2.7345 -0.2668 -1.9640
 4923WAT     H230769   3.078   3.952   5.515 -0.7717  0.4884  1.5974
 4924WAT      O30770   1.766   3.152   7.430 -0.0284  0.4707  0.4890
 4924WAT     H130771   1.748   3.233   7.383  0.4799  0.5478  0.4146
 4924WAT     H230772   1.704   3.088   7.394 -1.7203  1.2793  1.8712
 4925WAT      O30773   5.429   1.098   1.416  0.3028 -0.2044 -0.5315
 4925WAT     H130774   5.413   1.117   1.323 -0.1801 -1.0577 -0.6330
 4925WAT     H230775   5.342   1.097   1.455  0.2124 -2.5558 -0.6218
 4926WAT      O30776   1.605   0.182   7.391  0.5533  0.2647  0.1576
 4926WAT     H130777   1.685   0.216   7.351  0.8679 -0.6706 -0.0456
 4926WAT     H230778   1.606   0.216   7.480  0.5342  1.2820 -0.2225
 4927WAT      O30779   3.199   5.672   6.798 -0.3600 -0.2638  0.3117
 4927WAT     H130780   3.292   5.690   6.788 -0.5267 -0.6184 -2.7288
 4927WAT     H230781   3.196   5.582   6.830  0.2871  0.2305  1.8963
 4928WAT      O30782   3.531   3.854   0.881  0.0792 -0.7847  0.2551
 4928WAT     H130783   3.437   3.838   0.882  0.1830 -1.4591  2.2047
 4928WAT     H230784   3.539   3.944   0.850 -1.0615 -1.3011 -1.7639
 4929WAT      O30785   5.094   4.589   1.303  0.0182  0.0670  0.1982
 4929WAT     H130786   5.186   4.564   1.314  0.5683  1.5070 -0.7461
 4929WAT     H230787   5.097   4.685   1.301 -1.7248  0.1727  1.6957
 4930WAT      O30788   4.348   4.175   1.000 -0.6509 -0.2961 -0.1511
 4930WAT     H130789   4.364   4.112   0.930 -3.2849  0.4090 -1.5363
 4930WAT     H230790   4.397   4.253   0.974 -0.2478 -0.5969 -0.2968
 4931WAT      O30791   0.246   1.496   0.741  0.3475 -0.4903  0.2879
 4931WAT     H130792   0.244   1.456   0.827 -0.0796  0.6327  0.8260
 4931WAT     H230793   0.308   1.569   0.749 -0.2674  0.0994 -0.1166
 4932WAT      O30794   1.009   4.002   6.324  0.5488  0.2949  0.6260
 4932WAT     H130795   0.927   4.019   6.278  1.5609  0.4415 -1.2160
 4932WAT     H230796   0.993   4.030   6.414 -1.4400  0.2072  0.3379
 4933WAT      O30797   0.717   0.448   0.952 -0.1557  0.2332  0.4125
 4933WAT     H130798   0.636   0.486   0.986  0.3927 -0.7780  3.0836
 4933WAT     H230799   0.688   0.383   0.888 -1.4297  0.3561  0.8399
 4934WAT      O30800   5.433   3.345   1.158 -0.1163 -0.0189 -0.8722
 4934WAT     H130801   5.390   3.262   1.179 -1.8613  0.8675 -0.7707
 4934WAT     H230802   5.448   3.342   1.064 -0.0207 -0.5196 -0.8418
 4935WAT      O30803   4.539   3.080   6.445  0.2726 -0.4993 -0.5969
 4935WAT     H130804   4.471   3.110   6.385 -0.8726  0.9327  1.2986
 4935WAT     H230805   4.546   2.986   6.428 -2.7334 -0.8593 -0.4131
 4936WAT      O30806   0.569   0.437   6.836 -0.0733 -0.6226 -0.1129
 4936WAT     H130807   0.556   0.402   6.748 -2.0820 -1.1050  0.3281
 4936WAT     H230808   0.512   0.514   6.840  2.2250  1.2038 -0.1594
 4937WAT      O30809   5.371   3.029   1.671  0.6533  0.6351  1.2154
 4937WAT     H130810   5.320   3.029   1.752  0.2662 -0.5949  1.0012
 4937WAT     H230811   5.450   2.978   1.692 -0.3272 -1.3744  0.3526
 4938WAT      O30812   5.310   0.549   7.080 -0.0375 -0.8012  0.0356
 4938WAT     H130813   5.268   0.634   7.070 -1.2184 -1.4509 -0.7823
 4938WAT     H230814   5.322   0.540   7.175 -0.5704 -0.0349  0.1904
 4939WAT      O30815   0.162   1.100   1.194  0.5472  0.6017 -0.0447
 4939WAT     H130816   0.143   1.030   1.131  0.3448  0.7343 -0.1324
 4939WAT     H230817   0.207   1.055   1.266 -0.1720  0.2719  0.2015
 4940WAT      O30818   0.420   1.769   0.752  0.0231 -0.3353 -0.0891
 4940WAT     H130819   0.345   1.790   0.697  0.1036  0.1499 -0.0244
 4940WAT     H230820   0.433   1.848   0.805 -1.8303 -1.7286  2.7001
 4941WAT      O30821   3.522   1.046   2.003 -0.1964  0.9256  0.5529
 4941WAT     H130822   3.476   1.129   2.013  0.5789  1.4120  0.1669
 4941WAT     H230823   3.508   1.000   2.085 -2.2676  0.5948  0.0741
 4942WAT      O30824   3.696   3.303   7.144  0.2496  0.4736  0.0516
 4942WAT     H130825   3.718   3.388   7.183 -1.7298  0.6176  1.0069
 4942WAT     H230826   3.750   3.297   7.065  1.4484  1.9815  0.7141
 4943WAT      O30827   4.955   0.955   7.046 -0.5727 -0.7090  0.6810
 4943WAT     H130828   4.865   0.924   7.036 -0.8744 -1.5418  4.4452
 4943WAT     H230829   4.947   1.041   7.086  0.3543 -0.2324 -0.0950
 4944WAT      O30830   3.824   0.030   0.580 -0.0834  0.3039 -0.3352
 4944WAT     H130831   3.872   0.052   0.500 -1.3918  0.8517 -1.0093
 4944WAT     H230832   3.852   0.095   0.644  1.9144 -0.8770  0.0802
 4945WAT      O30833   3.644   2.356   1.983 -0.0438 -0.1183  0.1212
 4945WAT     H130834   3.670   2.443   2.014 -1.5884  0.4719 -0.1126
 4945WAT     H230835   3.603   2.373   1.898 -0.4072 -1.0748  0.0926
 4946WAT      O30836   1.078   5.550   2.032 -0.4541 -0.2279  0.1951
 4946WAT     H130837   1.158   5.554   1.980 -0.0082  0.3690  0.8980
 4946WAT     H230838   1.037   5.636   2.019 -1.1210 -0.6253 -0.3709
 4947WAT      O30839   2.256   1.456   7.306  0.2555  0.2427 -0.5533
 4947WAT     H130840   2.196   1.403   7.254 -1.0130  1.3066 -0.2358
 4947WAT     H230841   2.269   1.536   7.254  1.2069  0.1261 -0.5031
 4948WAT      O30842   3.633   1.077   1.529  0.7318  0.5228 -0.0452
 4948WAT     H130843   3.618   1.030   1.611 -0.2505  0.4292 -0.2640
 4948WAT     H230844   3.636   1.169   1.554 -4.7750  1.1529 -0.3426
 4949WAT      O30845   2.587   0.161   1.118 -0.0523  0.0541 -0.0805
 4949WAT     H130846   2.545   0.244   1.138 -0.7835 -0.6356  1.4955
 4949WAT     H230847   2.616   0.128   1.203  0.5990 -1.1110 -0.7235
 4950WAT      O30848   1.753   1.721   6.788 -0.3645 -0.2030 -0.1390
 4950WAT     H130849   1.776   1.758   6.703  2.1988 -0.4988  0.3585
 4950WAT     H230850   1.819   1.654   6.805 -0.4683  0.2048  2.3083
 4951WAT      O30851   5.109   4.907   0.617  0.0332 -0.8230 -0.1219
 4951WAT     H130852   5.135   4.984   0.667  0.2421 -0.3294 -0.9655
 4951WAT     H230853   5.122   4.932   0.526 -3.2991 -0.5528 -0.6662
 4952WAT      O30854   2.687   1.342   7.681  0.6249 -0.6386  0.4475
 4952WAT     H130855   2.675   1.420   7.736 -1.2545 -0.9502  0.5202
 4952WAT     H230856   2.629   1.356   7.607  0.0530 -2.0996  0.5918
 4953WAT      O30857   2.385   1.564   2.113  0.2361 -0.4710 -0.2829
 4953WAT     H130858   2.357   1.605   2.195  1.9713 -0.7678  0.5089
 4953WAT     H230859   2.435   1.631   2.068  0.4661 -0.7462 -0.4428
 4954WAT      O30860   1.544   3.180   0.945 -0.4863 -0.4423  0.2027
 4954WAT     H130861   1.449   3.186   0.948 -0.4476 -0.2479  1.5765
 4954WAT     H230862   1.564   3.093   0.979 -0.1421 -0.1203  0.8474
 4955WAT      O30863   1.370   3.346   5.724 -0.2855 -0.4592  0.4919
 4955WAT     H130864   1.317   3.297   5.662 -0.8082 -0.6010  1.0413
 4955WAT     H230865   1.339   3.436   5.718  0.4827 -0.2406 -0.3134
 4956WAT      O30866   4.173   5.289   6.975 -0.1598 -0.2097 -0.2825
 4956WAT     H130867   4.176   5.339   7.057 -3.1334  0.2208 -0.3243
 4956WAT     H230868   4.263   5.261   6.961  0.5639  0.1595  2.8336
 4957WAT      O30869   3.284   0.367   7.653  0.3695 -0.3711 -0.4650
 4957WAT     H130870   3.324   0.287   7.689 -0.5249 -1.2789 -1.4353
 4957WAT     H230871   3.195   0.366   7.686  0.5901  0.6800  0.1892
 4958WAT      O30872   1.348   4.034   0.459  0.1392 -0.0642 -0.0328
 4958WAT     H130873   1.392   3.977   0.396 -0.6141 -0.1939 -0.4422
 4958WAT     H230874   1.349   4.121   0.419  1.1466  0.2025  0.5230
 4959WAT      O30875   0.886   0.174   0.484 -0.1602 -0.4054  0.6748
 4959WAT     H130876   0.867   0.168   0.577  2.9123 -0.0618  1.4175
 4959WAT     H230877   0.892   0.083   0.454  0.3179 -0.5303  1.1528
 4960WAT      O30878   3.104   3.333   0.894  0.1018 -0.1729 -0.1002
 4960WAT     H130879   3.121   3.249   0.852  0.3165  0.2072 -0.7807
 4960WAT     H230880   3.191   3.367   0.916 -0.0322 -0.7151  1.3573
 4961WAT      O30881   1.077   2.720   2.277 -0.5391  0.3631 -0.2910
 4961WAT     H130882   1.041   2.720   2.188 -1.2989  1.3540 -0.0076
 4961WAT     H230883   1.002   2.698   2.332 -0.4577  1.3892  0.2339
 4962WAT      O30884   0.229   3.002   7.723 -0.4904 -0.0804  0.0546
 4962WAT     H130885   0.255   3.001   7.631 -0.5581  0.3316  0.0274
 4962WAT     H230886   0.311   3.014   7.772 -0.4502 -0.3354  0.0500
 4963WAT      O30887   1.297   4.255   7.051  0.4247 -0.0396 -0.5369
 4963WAT     H130888   1.245   4.279   6.974  0.7150  0.3454 -0.6166
 4963WAT     H230889   1.379   4.221   7.014  0.8567  0.8278 -0.3919
 4964WAT      O30890   4.921   4.186   0.501 -0.1935 -0.0942  0.2101
 4964WAT     H130891   4.937   4.092   0.513 -1.7384 -0.6722 -1.7999
 4964WAT     H230892   5.007   4.222   0.478  0.3381 -1.0539  0.6348
 4965WAT      O30893   3.432   1.982   6.640 -0.1921 -0.0145 -0.7340
 4965WAT     H130894   3.399   1.955   6.726  0.0306  1.3991 -0.1676
 4965WAT     H230895   3.525   1.961   6.641 -0.3514 -0.7434 -0.9513
 4966WAT      O30896   4.424   0.455   5.802 -0.1392  0.1932  0.0558
 4966WAT     H130897   4.449   0.479   5.891 -0.1332 -0.7429  0.3238
 4966WAT     H230898   4.473   0.514   5.746 -0.8299  1.3998  0.6863
 4967WAT      O30899   2.764   5.773   0.819  0.2628 -0.1760  0.2046
 4967WAT     H130900   2.819   5.837   0.774  1.2151 -0.3452  1.0818
 4967WAT     H230901   2.751   5.811   0.906  0.0714 -0.7532  0.4293
 4968WAT      O30902   0.959   5.063   1.803  0.9881 -0.1521 -0.8225
 4968WAT     H130903   0.980   5.153   1.829  2.1815 -0.4890 -0.5632
 4968WAT     H230904   0.895   5.034   1.869  2.1789 -0.1903  0.3580
 4969WAT      O30905   1.447   5.316   5.745 -0.0450  0.1096  0.0956
 4969WAT     H130906   1.437   5.372   5.821  0.5203  0.1131  0.1672
 4969WAT     H230907   1.357   5.301   5.714 -0.2502  0.3708  0.5648
 4970WAT      O30908   6.133   0.284   7.759 -0.4105 -0.1404 -0.2617
 4970WAT     H130909   6.200   0.336   7.803 -0.0474  0.3148 -1.3017
 4970WAT     H230910   6.131   0.318   7.670 -0.8556 -1.2689 -0.7129
 4971WAT      O30911   3.636   2.629   6.991 -0.0023 -0.3854 -0.3115
 4971WAT     H130912   3.713   2.628   7.048 -0.2282  0.5924  0.0283
 4971WAT     H230913   3.669   2.658   6.906 -0.1502  1.0175  0.0935
 4972WAT      O30914   5.523   4.826   6.924 -0.1740  0.5007  0.3902
 4972WAT     H130915   5.501   4.856   6.836  0.5372  1.3318  0.4761
 4972WAT     H230916   5.508   4.902   6.980  0.1899  0.2371  0.8561
 4973WAT      O30917   4.943   4.630   6.483 -0.1389 -0.0315 -0.1049
 4973WAT     H130918   4.889   4.707   6.463 -3.3334 -2.4875 -1.8430
 4973WAT     H230919   4.898   4.587   6.554  1.5247 -0.4640  0.7418
 4974WAT      O30920   0.672   5.440   6.915  0.0237 -1.1732  0.4437
 4974WAT     H130921   0.604   5.477   6.971 -0.3384 -1.3648  0.1359
 4974WAT     H230922   0.692   5.509   6.853  1.4527 -0.4273  1.6761
 4975WAT      O30923   0.026   5.101   2.187  0.4035  0.2830  0.2314
 4975WAT     H130924  -0.012   5.050   2.115  1.5057 -0.7898  0.3722
 4975WAT     H230925   0.002   5.191   2.168  1.6761  0.1876 -2.1594
 4976WAT      O30926   4.095   1.266   0.416 -0.4458  0.1753 -0.0764
 4976WAT     H130927   4.018   1.229   0.375  0.0962 -0.2448 -0.7316
 4976WAT     H230928   4.129   1.329   0.352 -0.3395  0.4792  0.2745
 4977WAT      O30929   0.283   4.163   7.527  0.0512 -0.4442  0.2048
 4977WAT     H130930   0.310   4.248   7.491  0.8684 -0.2218  1.2892
 4977WAT     H230931   0.200   4.181   7.570  0.2098 -0.1890  0.4098
 4978WAT      O30932   4.402   0.432   0.250  0.4447 -0.6342 -0.1198
 4978WAT     H130933   4.486   0.438   0.206 -0.3157 -1.1803 -1.7100
 4978WAT     H230934   4.337   0.453   0.183 -0.6697  0.5331  1.2493
 4979WAT      O30935   5.382   2.655   1.628  0.4204 -0.0845 -0.4266
 4979WAT     H130936   5.477   2.653   1.618  0.4562 -0.1246 -0.1120
 4979WAT     H230937   5.354   2.564   1.618  0.5808 -0.3030  0.9445
 4980WAT      O30938   3.349   2.938   6.412 -0.4107 -0.2669  0.3149
 4980WAT     H130939   3.264   2.975   6.433  0.7662  2.2294  1.1654
 4980WAT     H230940   3.344   2.916   6.319 -1.6833  0.7049  0.1289
 4981WAT      O30941   2.832   4.534   2.299  0.0498  0.0635  0.5842
 4981WAT     H130942   2.843   4.629   2.313 -0.1775  0.1877 -0.0504
 4981WAT     H230943   2.761   4.528   2.235 -1.6519 -0.6152  2.4181
 4982WAT      O30944   3.003   3.451   1.466  0.4474  0.4226  0.2921
 4982WAT     H130945   2.966   3.531   1.429  0.3986  0.6464  0.8213
 4982WAT     H230946   2.928   3.394   1.482  0.6461 -1.0162 -2.9434
 4983WAT      O30947   4.891   5.646   7.599 -0.4059  0.0498 -0.2811
 4983WAT     H130948   4.828   5.614   7.534 -1.1359 -0.5372  0.6775
 4983WAT     H230949   4.912   5.569   7.652 -0.0740  0.5767  0.3734
 4984WAT      O30950   3.182   6.223   1.768  0.0706  0.6727 -0.1938
 4984WAT     H130951   3.271   6.192   1.756 -0.4783 -0.3810 -1.9317
 4984WAT     H230952   3.176   6.243   1.861  2.0277  0.5167  0.0077
 4985WAT      O30953   1.389   4.633   7.111  0.9233  0.0970 -0.0017
 4985WAT     H130954   1.451   4.604   7.044  1.8764 -1.3205  1.4270
 4985WAT     H230955   1.365   4.553   7.159 -2.2104  0.5294 -0.5883
 4986WAT      O30956   4.779   0.505   0.128  0.0874 -0.4214 -0.1418
 4986WAT     H130957   4.802   0.501   0.036  1.4195 -2.1063  0.2114
 4986WAT     H230958   4.830   0.434   0.169  1.6565  1.9164  2.3409
 4987WAT      O30959   0.133   0.675   6.617 -0.6173 -0.1673  0.6972
 4987WAT     H130960   0.046   0.635   6.614 -0.3391 -0.7219 -0.1171
 4987WAT     H230961   0.192   0.603   6.634 -0.2094  0.0378  0.1786
 4988WAT      O30962   3.614   4.787   1.217 -0.0431  0.0423  0.4908
 4988WAT     H130963   3.643   4.878   1.213  1.6694 -0.4472  0.9696
 4988WAT     H230964   3.654   4.744   1.142  1.1888 -0.8242  1.5900
 4989WAT      O30965   3.273   0.132   1.543 -0.3717 -0.1901  0.3607
 4989WAT     H130966   3.242   0.058   1.596 -1.8868  0.6289  0.6657
 4989WAT     H230967   3.312   0.192   1.606 -0.2226 -0.1813  0.2617
 4990WAT      O30968   4.654   4.155   6.127 -0.3151  0.8557  0.3877
 4990WAT     H130969   4.736   4.106   6.125  0.1086  1.5679 -0.5828
 4990WAT     H230970   4.680   4.245   6.146 -0.8566  1.1102 -0.0347
 4991WAT      O30971   0.702   2.688   6.979  0.2597  0.0148  0.8710
 4991WAT     H130972   0.706   2.765   6.923 -0.3307 -0.1521  0.5907
 4991WAT     H230973   0.630   2.636   6.944 -1.8409  1.0811  3.3066
 4992WAT      O30974   5.891   4.084   0.864  0.2194  0.3646  0.1445
 4992WAT     H130975   5.967   4.025   0.867  0.6206  0.8637  0.0511
 4992WAT     H230976   5.826   4.037   0.813 -0.8053 -1.5008  2.9371
 4993WAT      O30977   5.631   1.654   1.224  0.0776 -0.1746  0.3539
 4993WAT     H130978   5.607   1.745   1.206 -1.9864 -0.5667  0.8750
 4993WAT     H230979   5.710   1.661   1.278 -0.3473  1.3435  0.8544
 4994WAT      O30980   3.455   1.236   5.663  0.5177  0.0281 -0.1478
 4994WAT     H130981   3.434   1.143   5.665  0.9087 -0.0529  1.0239
 4994WAT     H230982   3.533   1.242   5.607 -0.2003 -0.1745 -1.2023
 4995WAT      O30983   4.483   4.017   0.168  0.9064 -0.1027 -0.0836
 4995WAT     H130984   4.564   4.049   0.208  1.1145  0.2150 -0.7450
 4995WAT     H230985   4.509   3.938   0.120  1.0945  0.7198 -1.3727
 4996WAT      O30986   6.015   2.428   1.021  0.0913 -0.7909  0.1359
 4996WAT     H130987   6.089   2.463   0.972  0.9024 -0.6122  1.4454
 4996WAT     H230988   5.970   2.504   1.056  0.1338 -0.9353  0.5189
 4997WAT      O30989   2.799   5.197   6.738  0.5728 -0.3597 -0.6303
 4997WAT     H130990   2.828   5.131   6.675 -0.7327 -0.7529 -0.8358
 4997WAT     H230991   2.849   5.276   6.715  1.3219 -0.9549 -1.0890
 4998WAT      O30992   5.242   2.549   2.567  0.4899  0.0511  0.2609
 4998WAT     H130993   5.322   2.498   2.576  0.4161 -0.4133 -1.3233
 4998WAT     H230994   5.215   2.570   2.656  0.8782 -2.1127  0.9273
 4999WAT      O30995   4.634   4.859   0.242 -0.1427  0.3566  0.0070
 4999WAT     H130996   4.573   4.794   0.277  0.3308 -0.4836 -0.7105
 4999WAT     H230997   4.588   4.896   0.167  0.2345 -0.3351 -0.5840
 5000WAT      O30998   6.179   3.545   0.794  0.1817 -0.6665 -0.1699
 5000WAT     H130999   6.241   3.571   0.727  0.4209 -1.6922 -0.3615
 5000WAT     H231000   6.128   3.624   0.810  0.0739 -0.4103 -1.6102
 5001WAT      O31001   6.112   3.081   0.324 -0.3326 -0.1524 -0.2190
 5001WAT     H131002   6.159   3.158   0.291 -0.7832  0.7319  1.1456
 5001WAT     H231003   6.071   3.044   0.246  1.2669 -0.0155 -1.1786
 5002WAT      O31004   5.824   6.178   6.278  0.1549 -0.6075 -0.0113
 5002WAT     H131005   5.759   6.191   6.348 -0.8328 -1.6186 -0.6898
 5002WAT     H231006   5.775   6.195   6.197  1.2079  0.2616 -0.4929
 5003WAT      O31007   0.245   1.858   7.156 -0.0470  0.0544 -0.1041
 5003WAT     H131008   0.288   1.794   7.100 -0.6706  1.0041 -1.7453
 5003WAT     H231009   0.176   1.809   7.201  1.4836 -1.0750  1.1497
 5004WAT      O31010   0.806   4.342   6.725  0.2187  0.1738  0.4360
 5004WAT     H131011   0.863   4.394   6.669  0.8720 -0.9172  0.0594
 5004WAT     H231012   0.814   4.383   6.811 -1.0650  2.0785 -0.2974
 5005WAT      O31013   2.783   2.298   0.479 -0.1588 -0.0751  0.5081
 5005WAT     H131014   2.754   2.231   0.541 -1.2764 -2.0611 -1.9964
 5005WAT     H231015   2.857   2.340   0.523  0.0497 -2.3609  2.5646
 5006WAT      O31016   4.012   6.229   6.397 -0.0905 -0.2428  0.2335
 5006WAT     H131017   3.965   6.169   6.455 -0.3218  0.8318  1.1900
 5006WAT     H231018   4.038   6.175   6.323 -0.4597 -1.4779  0.9749
 5007WAT      O31019   1.302   2.836   0.532  0.0965  0.2779 -0.1643
 5007WAT     H131020   1.356   2.760   0.553  0.4077  0.6106  0.2499
 5007WAT     H231021   1.346   2.877   0.457  0.6470  0.7727  0.4207
 5008WAT      O31022   4.392   1.981   7.799  0.5310 -0.3029  0.3483
 5008WAT     H131023   4.486   1.970   7.788  0.6966 -0.5067  1.8429
 5008WAT     H231024   4.374   1.948   7.887 -1.4242 -3.1734 -0.9718
 5009WAT      O31025   4.454   2.255   7.671  0.4603 -0.0684  0.1540
 5009WAT     H131026   4.486   2.231   7.584 -1.5239 -1.9776 -0.1279
 5009WAT     H231027   4.428   2.172   7.711 -2.4741  1.1381  0.9633
 5010WAT      O31028   3.296   0.913   6.820  0.4568 -0.0911  0.3218
 5010WAT     H131029   3.210   0.883   6.850  0.4093  0.0874  0.3659
 5010WAT     H231030   3.276   0.989   6.765  0.4286 -1.1698 -1.2485
 5011WAT      O31031   0.033   5.464   0.813 -0.3822 -0.8122  0.4833
 5011WAT     H131032   0.084   5.383   0.806 -0.5786 -1.0957  2.0511
 5011WAT     H231033  -0.026   5.461   0.737  0.7829 -1.2733 -0.4409
 5012WAT      O31034   3.871   4.527   5.751 -0.1836  0.2129 -0.8049
 5012WAT     H131035   3.939   4.582   5.711 -1.6085  2.0460 -0.8089
 5012WAT     H231036   3.857   4.457   5.687  1.0395  0.3295 -1.2330
 5013WAT      O31037   1.960   3.241   5.779  0.1198  0.6881 -0.3010
 5013WAT     H131038   1.970   3.150   5.807  1.6659  1.1513  0.8139
 5013WAT     H231039   1.993   3.242   5.689 -0.0998  0.1169 -0.3919
 5014WAT      O31040   4.542   1.762   7.852  0.4439 -0.5317  0.4137
 5014WAT     H131041   4.605   1.790   7.919 -0.7769  2.0184  0.5671
 5014WAT     H231042   4.462   1.743   7.901 -1.8349  5.2356 -0.2968
 5015WAT      O31043   1.444   4.815   6.681 -0.0828  0.2417  0.0671
 5015WAT     H131044   1.528   4.770   6.670 -0.3684 -0.1175 -0.6806
 5015WAT     H231045   1.459   4.878   6.751  0.5855 -0.3857  0.4907
 5016WAT      O31046   4.001   4.149   1.766 -0.2523 -0.3586 -0.6652
 5016WAT     H131047   4.039   4.061   1.765  1.4105  0.3060 -0.0395
 5016WAT     H231048   4.075   4.208   1.753 -1.2819  0.9756 -0.7760
 5017WAT      O31049   4.234   0.691   7.091  0.2664 -0.1236 -0.2151
 5017WAT     H131050   4.142   0.665   7.099  0.5150 -0.5883  1.7293
 5017WAT     H231051   4.231   0.781   7.059 -0.8494 -0.2925 -0.6144
 5018WAT      O31052   3.521   1.958   0.913 -0.3372 -0.3659 -0.4522
 5018WAT     H131053   3.429   1.946   0.888 -1.5135 -0.3245  3.2794
 5018WAT     H231054   3.554   1.869   0.927  0.2389 -0.3803 -1.7742
 5019WAT      O31055   0.435   1.423   7.527 -0.7069 -0.2328 -0.0778
 5019WAT     H131056   0.413   1.330   7.517  1.5384 -0.8134 -0.2370
 5019WAT     H231057   0.400   1.464   7.448 -2.7682 -0.6748  0.5430
 5020WAT      O31058   2.742   1.085   2.101 -0.0429 -0.4641 -0.1075
 5020WAT     H131059   2.783   1.112   2.183 -0.2839 -0.5149  0.0335
 5020WAT     H231060   2.812   1.044   2.051 -0.1840 -1.7471  0.6673
 5021WAT      O31061   4.059   0.245   6.750  0.7040 -0.4676  0.3443
 5021WAT     H131062   4.125   0.292   6.699  0.7916 -0.2475  0.6585
 5021WAT     H231063   4.097   0.238   6.837  0.1930 -0.0896  0.6017
 5022WAT      O31064   3.091   0.866   6.042 -0.0936  0.6766  0.0436
 5022WAT     H131065   3.176   0.828   6.020 -1.6369 -3.7019  0.6987
 5022WAT     H231066   3.079   0.844   6.135 -2.7696 -0.8347 -0.5666
 5023WAT      O31067   3.076   1.820   7.297  0.3289  0.4382  0.3672
 5023WAT     H131068   3.164   1.802   7.330  0.9021 -3.1005 -2.4835
 5023WAT     H231069   3.020   1.758   7.344  0.0579  0.0219 -0.4807
 5024WAT      O31070   5.451   3.478   7.826 -0.6380  0.1420  0.3071
 5024WAT     H131071   5.461   3.520   7.741  0.1299  2.0923  1.2955
 5024WAT     H231072   5.532   3.498   7.872 -0.3741 -2.2253  0.9731
 5025WAT      O31073   5.507   4.810   1.338  0.0466  0.0653 -0.6319
 5025WAT     H131074   5.587   4.786   1.290 -0.1932  1.7194 -1.9288
 5025WAT     H231075   5.530   4.890   1.385 -0.4661 -0.1790  0.0484
 5026WAT      O31076   4.020   2.093   6.871 -0.0019  0.4466 -0.1823
 5026WAT     H131077   4.063   2.097   6.956 -0.1445 -2.2979  0.1129
 5026WAT     H231078   3.926   2.096   6.891 -0.0288  0.5891 -0.3238
 5027WAT      O31079   1.736   5.529   6.548  0.0488 -0.2420 -0.2512
 5027WAT     H131080   1.656   5.478   6.552 -0.3391  0.3133 -0.7841
 5027WAT     H231081   1.750   5.545   6.455  0.0215  0.8278 -0.0935
 5028WAT      O31082   5.710   6.186   7.821  0.3875  0.2141  0.0094
 5028WAT     H131083   5.769   6.119   7.787 -0.1598 -0.1916 -0.1577
 5028WAT     H231084   5.761   6.268   7.816  0.7452 -0.0384 -0.6176
 5029WAT      O31085   4.840   0.296   0.744  0.5758 -0.1288  0.0702
 5029WAT     H131086   4.894   0.280   0.821  0.8417  0.4981  0.0237
 5029WAT     H231087   4.867   0.230   0.681 -1.2210 -2.1309  1.2600
 5030WAT      O31088   1.165   5.991   2.073  0.4570  0.3202 -0.1377
 5030WAT     H131089   1.244   6.034   2.105  0.6627 -0.2341  0.1186
 5030WAT     H231090   1.099   6.009   2.139  0.4673  0.4816 -0.1721
 5031WAT      O31091   1.913   4.654   7.107  0.0466  0.4413  0.5141
 5031WAT     H131092   1.854   4.665   7.182 -0.2371 -1.6780  0.6658
 5031WAT     H231093   1.992   4.702   7.132 -0.7495  1.3781  1.3278
 5032WAT      O31094   2.623   5.839   5.785  0.0573  0.4636  0.4067
 5032WAT     H131095   2.620   5.919   5.732  0.0679 -0.1857 -0.5823
 5032WAT     H231096   2.571   5.775   5.736  0.1846 -0.1886  1.1070
 5033WAT      O31097   2.348   4.655   7.489  0.3643 -0.3293 -0.5310
 5033WAT     H131098   2.358   4.674   7.395  1.7237  1.6751 -0.0366
 5033WAT     H231099   2.254   4.637   7.499 -0.1183  1.0402 -2.0393
 5034WAT      O31100   2.454   1.326   2.252 -0.4872 -0.1820  0.3294
 5034WAT     H131101   2.511   1.388   2.298  0.3934 -0.2409 -0.6338
 5034WAT     H231102   2.433   1.371   2.170  0.2406 -1.1853 -0.4219
 5035WAT      O31103   0.626   6.029   0.614 -0.0278 -0.2735 -0.0106
 5035WAT     H131104   0.631   5.989   0.527 -2.1656  0.9200 -0.7286
 5035WAT     H231105   0.677   5.969   0.670  2.9263 -0.1356 -2.3279
 5036WAT      O31106   3.248   2.936   1.380 -0.6313  0.0997 -0.0939
 5036WAT     H131107   3.201   2.869   1.431  0.3561 -0.5325  0.0027
 5036WAT     H231108   3.328   2.952   1.430  0.7793 -1.1482 -1.8488
 5037WAT      O31109   3.598   2.392   6.248 -0.2957  0.0530  0.1542
 5037WAT     H131110   3.632   2.361   6.332  0.6014  0.9320  0.1264
 5037WAT     H231111   3.572   2.482   6.265  0.9941  0.6344 -0.7860
 5038WAT      O31112   4.897   3.018   5.939  0.3481 -0.1059 -0.3324
 5038WAT     H131113   4.859   3.008   5.851  1.5001 -1.8032 -0.6750
 5038WAT     H231114   4.859   2.947   5.990  0.1835  0.4840  0.3859
 5039WAT      O31115   5.941   1.469   1.861  0.5556  0.6708 -0.4465
 5039WAT     H131116   6.026   1.474   1.903  0.6668 -0.8705 -0.4480
 5039WAT     H231117   5.880   1.502   1.927  0.9799  0.3691  0.1034
 5040WAT      O31118   4.991   2.635   1.426 -0.1194 -0.7913  0.2176
 5040WAT     H131119   5.013   2.542   1.423  4.5050  0.0745  0.2545
 5040WAT     H231120   5.034   2.667   1.505  0.2797  1.7076 -0.9181
 5041WAT      O31121   2.632   2.091   2.468 -0.0345 -0.1678 -0.0251
 5041WAT     H131122   2.654   2.150   2.396  1.2221  0.0709  0.5353
 5041WAT     H231123   2.661   2.005   2.438  3.4930  0.3677  1.3531
 5042WAT      O31124   3.278   3.565   5.052 -0.7514  0.0793  0.0451
 5042WAT     H131125   3.331   3.633   5.010 -1.0673  0.1068 -0.3081
 5042WAT     H231126   3.293   3.487   4.999 -2.0706  0.3996 -0.8313
 5043WAT      O31127   0.220   3.569   7.017 -0.2038  0.0666  0.2806
 5043WAT     H131128   0.147   3.630   7.015 -0.0564  0.3103  1.7498
 5043WAT     H231129   0.294   3.618   6.981 -0.1453  0.6735  1.2228
 5044WAT      O31130   6.115   1.041   0.970  0.3899  0.1864  0.1354
 5044WAT     H131131   6.034   1.086   0.947  0.9770  2.0967  1.5503
 5044WAT     H231132   6.089   0.974   1.033 -0.4031 -1.0540 -1.4529
 5045WAT      O31133   4.237   6.221   7.413  0.0332 -0.2351 -0.6159
 5045WAT     H131134   4.199   6.245   7.497 -0.6001  0.8306 -1.1856
 5045WAT     H231135   4.205   6.133   7.396  0.8854 -0.8317  0.6490
 5046WAT      O31136   4.533   0.233   1.534  0.4026  0.0417 -0.0146
 5046WAT     H131137   4.492   0.255   1.618 -0.5173 -1.9839  0.1268
 5046WAT     H231138   4.540   0.137   1.535 -0.1876 -0.1083 -2.4847
 5047WAT      O31139   4.586   2.712   0.936 -0.1530 -0.1057  0.0266
 5047WAT     H131140   4.648   2.703   1.009  0.5843  0.4930 -0.5128
 5047WAT     H231141   4.545   2.625   0.929  0.4378 -0.4371  0.5598
 5048WAT      O31142   2.431   0.776   7.712 -0.2345 -0.0934 -0.4686
 5048WAT     H131143   2.486   0.706   7.747  0.6299  0.7161 -0.1774
 5048WAT     H231144   2.349   0.732   7.689 -0.4988 -0.8233  1.6701
 5049WAT      O31145   1.327   0.394   7.655  0.1910 -0.5839  0.1781
 5049WAT     H131146   1.350   0.303   7.638 -1.1084 -1.1313  1.1782
 5049WAT     H231147   1.405   0.432   7.695 -0.1141 -2.0083  2.2648
 5050WAT      O31148   0.883   0.952   7.867 -0.1890  0.0855  0.3865
 5050WAT     H131149   0.913   1.029   7.820  0.7081 -0.1829  0.4942
 5050WAT     H231150   0.791   0.970   7.887 -0.9132 -0.2072 -2.2817
 5051WAT      O31151   0.522   5.552   0.701 -0.1812 -0.8190 -0.1980
 5051WAT     H131152   0.577   5.592   0.768  2.2049 -2.9153 -0.7352
 5051WAT     H231153   0.584   5.503   0.646 -2.4832 -2.3006 -1.6109
 5052WAT      O31154   1.063   3.999   5.263  0.3340  0.5092  0.1728
 5052WAT     H131155   1.070   4.025   5.354  0.3397 -0.9379  0.6162
 5052WAT     H231156   1.123   4.057   5.216  0.5376  1.0805  1.1165
 5053WAT      O31157   2.096   1.530   1.003 -0.6510 -0.3738 -0.5128
 5053WAT     H131158   2.133   1.455   1.049 -1.4895  0.2431  1.2420
 5053WAT     H231159   2.001   1.519   1.010 -0.7878  0.6537 -0.5220
 5054WAT      O31160   3.563   1.110   7.693  0.1211 -0.2297  0.1087
 5054WAT     H131161   3.496   1.163   7.737  0.2416  0.6891 -0.7701
 5054WAT     H231162   3.645   1.157   7.709  0.6327 -1.5126  1.4439
 5055WAT      O31163   3.452   3.323   7.813  0.6422  0.4555  0.3490
 5055WAT     H131164   3.546   3.310   7.796  1.5635  2.3300  3.2421
 5055WAT     H231165   3.422   3.241   7.852  1.6200  0.5061  1.2530
 5056WAT      O31166   5.379   5.897   7.902  0.2765 -0.5297  0.2837
 5056WAT     H131167   5.321   5.821   7.901  0.9206 -1.0337  0.3682
 5056WAT     H231168   5.427   5.889   7.985  0.9784 -0.5224 -0.1154
 5057WAT      O31169   5.991   5.283   0.101 -0.6983  0.2826  0.8863
 5057WAT     H131170   6.038   5.254   0.180  0.5794  0.7330  0.3202
 5057WAT     H231171   6.022   5.225   0.032 -2.2651 -0.5022  0.7995
 5058WAT      O31172   2.415   1.440   1.313 -0.7137  0.5286  0.4433
 5058WAT     H131173   2.424   1.401   1.226  0.4786  2.4278 -0.3442
 5058WAT     H231174   2.462   1.380   1.371 -0.2422 -0.0023 -0.4658
 5059WAT      O31175   4.667   4.228   7.333 -1.0126  0.0734  0.4698
 5059WAT     H131176   4.589   4.263   7.375 -0.2049  0.3635  1.7543
 5059WAT     H231177   4.732   4.222   7.402  0.3520  0.5283 -0.7221
 5060WAT      O31178   3.174   1.193   7.520  0.6537 -0.1609 -0.3545
 5060WAT     H131179   3.209   1.206   7.432  0.3676  1.3123 -0.2789
 5060WAT     H231180   3.213   1.111   7.550  2.9845  0.7146 -0.7911
 5061WAT      O31181   4.303   2.800   0.253  0.4671 -0.4593 -0.4116
 5061WAT     H131182   4.261   2.725   0.296  0.1120 -1.7492 -2.8325
 5061WAT     H231183   4.389   2.767   0.227  1.1402  0.6670  0.3190
 5062WAT      O31184   1.162   1.200   5.615  0.3144  0.1255  0.1959
 5062WAT     H131185   1.156   1.131   5.550  0.3296 -1.0355  1.3751
 5062WAT     H231186   1.080   1.194   5.665  0.6640  0.4049  0.8248
 5063WAT      O31187   5.336   2.798   6.742 -0.5084  0.3589  0.2267
 5063WAT     H131188   5.277   2.851   6.797 -1.6141 -0.5133 -0.0863
 5063WAT     H231189   5.418   2.797   6.790 -1.3503 -0.1046  1.7326
 5064WAT      O31190   1.039   3.472   1.195 -0.0013 -0.0322 -0.1973
 5064WAT     H131191   0.952   3.511   1.192 -0.1901 -0.4456 -0.2198
 5064WAT     H231192   1.024   3.379   1.178  0.4156 -0.1488  0.0590
 5065WAT      O31193   1.470   0.674   0.177  0.6744 -0.7406  0.1024
 5065WAT     H131194   1.451   0.750   0.231  0.2688  0.1693 -1.2505
 5065WAT     H231195   1.404   0.609   0.202 -0.7901  0.3901 -0.6693
 5066WAT      O31196   5.842   2.106   7.421  0.4888 -0.8275  0.2732
 5066WAT     H131197   5.782   2.034   7.442 -2.3178  1.6602  1.4088
 5066WAT     H231198   5.872   2.138   7.506 -0.2119  0.8028 -0.0609
 5067WAT      O31199   5.427   3.384   7.235  0.3027 -0.4433  0.2800
 5067WAT     H131200   5.446   3.476   7.254  0.7067 -0.5153  0.2386
 5067WAT     H231201   5.341   3.369   7.274 -0.1691  0.1910 -0.5066
 5068WAT      O31202   5.428   3.939   6.434  0.5134  0.5739  0.5949
 5068WAT     H131203   5.518   3.956   6.404  0.7428 -1.3963  0.0046
 5068WAT     H231204   5.439   3.898   6.520  0.1362  1.0949  0.8891
 5069WAT      O31205   4.121   0.021   6.030  0.1296  0.2428 -0.6054
 5069WAT     H131206   4.033   0.004   5.995 -1.0329  2.6855  0.9175
 5069WAT     H231207   4.142  -0.058   6.080 -0.5772 -0.9299 -2.0597
 5070WAT      O31208   3.487   0.207   0.816 -0.6723 -0.1667 -0.0344
 5070WAT     H131209   3.492   0.135   0.753 -0.6260  0.4441 -0.7372
 5070WAT     H231210   3.570   0.253   0.807 -1.3825  0.9898 -0.8220
 5071WAT      O31211   0.165   1.376   1.022  0.0966 -0.1099  0.0496
 5071WAT     H131212   0.120   1.321   1.086 -0.7128  0.7545  0.2472
 5071WAT     H231213   0.256   1.378   1.053  0.0106 -0.8420  0.3698
 5072WAT      O31214   3.101   4.577   1.011  0.0867 -0.1115  0.1473
 5072WAT     H131215   3.149   4.657   1.032 -1.1740  0.9695 -0.8855
 5072WAT     H231216   3.033   4.605   0.950 -1.2707 -1.7228  0.8297
 5073WAT      O31217   3.708   2.401   6.535  0.3862  0.2045 -0.0449
 5073WAT     H131218   3.657   2.435   6.608 -1.2648 -0.0834 -1.0038
 5073WAT     H231219   3.689   2.308   6.533 -1.1067  0.4832 -1.9201
 5074WAT      O31220   4.235   3.076   6.696 -0.0614 -0.0085  0.0039
 5074WAT     H131221   4.212   3.078   6.603  0.0534  0.7915 -0.0148
 5074WAT     H231222   4.301   3.144   6.706  1.0518 -1.1027  0.3831
 5075WAT      O31223   5.201   6.187   0.079 -0.6076  0.6240  0.1390
 5075WAT     H131224   5.227   6.121   0.143 -0.7057 -2.0866 -2.3757
 5075WAT     H231225   5.132   6.237   0.122 -0.7623 -1.1171  2.0929
 5076WAT      O31226   2.228   5.691   2.130 -0.1760  0.2506  0.2304
 5076WAT     H131227   2.323   5.701   2.121  0.0258 -2.1455 -1.1398
 5076WAT     H231228   2.217   5.606   2.172 -1.7350  0.0647 -0.4941
 5077WAT      O31229   3.075   0.960   0.010  0.6868  0.4842 -0.0507
 5077WAT     H131230   3.116   1.035   0.052  2.6885 -0.9124  0.5936
 5077WAT     H231231   3.146   0.898  -0.005 -1.0474 -1.7185  0.3447
 5078WAT      O31232   6.030   3.436   1.130 -0.3132  0.0039  0.2671
 5078WAT     H131233   5.951   3.395   1.166  0.0091  0.4422  1.5100
 5078WAT     H231234   6.101   3.406   1.186  0.2363  0.5594 -0.1193
 5079WAT      O31235   0.675   4.688   0.698 -0.2334  0.1433 -0.4300
 5079WAT     H131236   0.581   4.696   0.681 -0.3382  1.2013  0.5071
 5079WAT     H231237   0.699   4.602   0.664 -1.4384  0.0736 -1.1359
 5080WAT      O31238   2.846   0.438   0.613  0.4955  0.0977  0.0983
 5080WAT     H131239   2.878   0.352   0.588 -1.3048 -0.4449 -0.4302
 5080WAT     H231240   2.913   0.471   0.674  0.3627 -2.4097  1.7362
 5081WAT      O31241   1.476   2.617   0.408  0.6012  0.1592  0.4169
 5081WAT     H131242   1.397   2.564   0.422  0.9943 -0.1871  1.4051
 5081WAT     H231243   1.546   2.553   0.399  0.7164  0.4505 -0.9396
 5082WAT      O31244   5.675   5.922   6.455  0.2291  0.8383 -0.0577
 5082WAT     H131245   5.645   5.900   6.367 -1.0074 -1.6295  0.8846
 5082WAT     H231246   5.624   6.000   6.479  0.6560  1.6075 -1.4982
 5083WAT      O31247   4.535   2.089   7.356  0.0369 -0.2081 -0.2533
 5083WAT     H131248   4.459   2.067   7.410  1.2466  1.1784  2.1923
 5083WAT     H231249   4.593   2.013   7.365 -0.2832 -0.4912 -0.5908
 5084WAT      O31250   3.955   3.941   0.646  0.0726  0.5581 -0.0659
 5084WAT     H131251   4.024   3.875   0.647  1.2018  1.6508 -1.1576
 5084WAT     H231252   3.977   3.999   0.720  1.5523  2.0147 -1.5466
 5085WAT      O31253   5.849   2.822   0.337 -0.0372 -0.0788 -0.2107
 5085WAT     H131254   5.831   2.735   0.302  4.8928 -1.9938  1.1473
 5085WAT     H231255   5.884   2.871   0.263 -2.5692  0.8075 -0.9128
 5086WAT      O31256   5.394   1.431   7.398  0.5750  0.1838  0.2824
 5086WAT     H131257   5.474   1.380   7.386  1.0581  0.8329  0.6130
 5086WAT     H231258   5.414   1.516   7.357  1.0348  1.2588  2.5554
 5087WAT      O31259   1.416   3.115   6.663  0.6932 -0.0187 -0.2227
 5087WAT     H131260   1.387   3.042   6.609  0.5841  0.3668 -0.6934
 5087WAT     H231261   1.343   3.178   6.660  0.6916  0.0173  0.3575
 5088WAT      O31262   4.418   5.747   7.249  0.4899 -0.1240  0.0674
 5088WAT     H131263   4.427   5.689   7.325  2.4409 -0.3338 -0.2943
 5088WAT     H231264   4.429   5.690   7.174 -0.6323  0.2268 -0.3822
 5089WAT      O31265   4.001   1.562   7.935 -0.1663  0.1400  0.0485
 5089WAT     H131266   4.041   1.499   7.875  3.0775  2.2162 -0.1947
 5089WAT     H231267   3.976   1.635   7.880  0.6010  1.0606  0.8941
 5090WAT      O31268   1.884   2.306   0.723  0.0462  0.2819 -0.0298
 5090WAT     H131269   1.926   2.293   0.638 -0.9848  1.0766 -0.6683
 5090WAT     H231270   1.943   2.365   0.770 -0.4507  1.5762 -1.0060
 5091WAT      O31271   5.325   1.087   1.136  0.1717  0.2523 -0.1218
 5091WAT     H131272   5.407   1.063   1.093  1.1829  0.7389  1.4474
 5091WAT     H231273   5.257   1.061   1.074  1.2194 -4.3424  0.2758
 5092WAT      O31274   5.270   5.933   6.056  0.5547 -0.8035  0.2357
 5092WAT     H131275   5.360   5.964   6.043 -0.2197  0.7682 -1.8003
 5092WAT     H231276   5.254   5.872   5.984 -0.7021  0.6511 -0.7679
 5093WAT      O31277   2.133   3.072   0.289 -0.2214  0.5681 -0.1275
 5093WAT     H131278   2.057   3.014   0.289  0.2231 -0.0836  2.2847
 5093WAT     H231279   2.208   3.014   0.301  0.9129  1.0467 -3.7284
 5094WAT      O31280   4.430   1.845   6.839 -0.2282  0.0633 -0.0355
 5094WAT     H131281   4.517   1.813   6.818  0.2779  0.2256  1.6702
 5094WAT     H231282   4.394   1.780   6.899 -0.7150  0.6998  0.3814
 5095WAT      O31283   1.980   3.509   1.706 -0.1492 -0.2599  0.5842
 5095WAT     H131284   2.029   3.514   1.624 -0.3839 -1.1628  0.3800
 5095WAT     H231285   1.899   3.556   1.688 -0.0829 -0.2207  0.3797
 5096WAT      O31286   4.214   3.398   7.892 -0.3888 -0.3373 -0.0428
 5096WAT     H131287   4.255   3.335   7.833  0.1119  0.0258 -0.0884
 5096WAT     H231288   4.216   3.481   7.844 -1.4285 -0.3601 -0.1594
 5097WAT      O31289   3.395   0.301   6.940  0.2944  0.0552  0.3842
 5097WAT     H131290   3.339   0.225   6.926 -0.2452  0.2385  1.4667
 5097WAT     H231291   3.442   0.282   7.021 -0.2246  1.0938  0.9489
 5098WAT      O31292   3.565   1.602   1.427  0.1408  0.4578  0.2361
 5098WAT     H131293   3.573   1.510   1.401 -1.7194  0.6527 -1.1582
 5098WAT     H231294   3.572   1.600   1.522  2.2899 -0.8413  0.1369
 5099WAT      O31295   1.413   0.577   6.833  0.1711 -0.4258 -0.2444
 5099WAT     H131296   1.324   0.567   6.798 -0.1694 -0.3229  0.5454
 5099WAT     H231297   1.399   0.615   6.921  1.0959  1.4853 -0.8667
 5100WAT      O31298   4.440   1.322   7.683 -0.0631 -0.3297 -0.2346
 5100WAT     H131299   4.532   1.317   7.655  0.5945  1.8687  1.2691
 5100WAT     H231300   4.409   1.404   7.646 -1.6036 -1.2380 -1.0670
 5101WAT      O31301   3.422   2.531   7.544 -0.1059  0.0302  0.6893
 5101WAT     H131302   3.330   2.514   7.564  0.0066  0.4309  1.6110
 5101WAT     H231303   3.420   2.579   7.461 -0.6335 -1.1802 -0.0172
 5102WAT      O31304   4.308   1.709   0.144 -0.0564 -0.1559  0.2391
 5102WAT     H131305   4.298   1.644   0.074 -3.8711 -0.6947  1.0467
 5102WAT     H231306   4.249   1.780   0.119  0.0942  0.5928  1.8732
 5103WAT      O31307   2.722   2.180   5.771 -0.4612  0.0479 -0.0148
 5103WAT     H131308   2.685   2.240   5.706 -0.9154 -0.4227 -0.1963
 5103WAT     H231309   2.758   2.108   5.718  0.3729  0.3181  0.1809
 5104WAT      O31310   1.027   1.658   7.877  0.2646 -0.4248 -0.4522
 5104WAT     H131311   0.977   1.712   7.938  1.3184 -0.9799  0.9802
 5104WAT     H231312   1.119   1.683   7.892  0.9001 -3.1879  1.0045
 5105WAT      O31313   3.933   4.753   6.081 -0.4252 -0.4711  0.1391
 5105WAT     H131314   3.903   4.788   5.997  0.9682 -1.6306 -0.8884
 5105WAT     H231315   4.027   4.769   6.082 -0.7090  1.7298  2.6160
 5106WAT      O31316   2.229   3.840   7.774  0.1907  0.1273 -0.3084
 5106WAT     H131317   2.189   3.768   7.725  2.5785 -1.2953 -0.3591
 5106WAT     H231318   2.297   3.873   7.715  0.1711  1.3997  0.3435
 5107WAT      O31319   4.447   3.821   6.866  0.0990 -0.3661  0.1750
 5107WAT     H131320   4.370   3.768   6.884  0.3565 -1.5657 -1.9933
 5107WAT     H231321   4.419   3.882   6.797  1.0591 -0.8044 -0.6245
 5108WAT      O31322   5.214   1.294   6.338  0.0444 -0.2694  0.0840
 5108WAT     H131323   5.127   1.306   6.375  0.5518  1.2564  0.9114
 5108WAT     H231324   5.218   1.358   6.266  0.6874  0.1675  0.4905
 5109WAT      O31325   4.513   4.926   7.929 -0.0652 -0.2960  0.5034
 5109WAT     H131326   4.542   4.861   7.864  1.6344  0.6399  0.2540
 5109WAT     H231327   4.421   4.941   7.909 -0.0002 -1.2558 -0.6279
 5110WAT      O31328   0.494   0.071   1.711  0.1004 -0.6122  1.1557
 5110WAT     H131329   0.580   0.073   1.671 -0.5101  1.2552 -0.1577
 5110WAT     H231330   0.485   0.156   1.754 -1.5660 -0.2207  0.1347
 5111WAT      O31331   4.560   3.061   1.683 -0.0562 -0.0081 -0.0245
 5111WAT     H131332   4.586   2.973   1.654  0.4171  0.0028  0.3609
 5111WAT     H231333   4.482   3.081   1.632 -0.1966 -0.6778 -0.0809
 5112WAT      O31334   2.156   3.743   7.439  0.4569  0.1521  0.0680
 5112WAT     H131335   2.226   3.805   7.461  0.3738  0.0833  0.5451
 5112WAT     H231336   2.174   3.718   7.348  0.9152  0.3154  0.1097
 5113WAT      O31337   4.029   1.607   5.526  0.4353 -0.2566 -0.5406
 5113WAT     H131338   4.009   1.693   5.489  0.7261 -1.0255 -2.6259
 5113WAT     H231339   3.991   1.545   5.464  2.2614 -1.6664 -0.3417
 5114WAT      O31340   2.729   4.813   5.764 -0.1301 -0.2235 -0.1172
 5114WAT     H131341   2.734   4.767   5.680  0.0721  0.9388 -0.7548
 5114WAT     H231342   2.816   4.849   5.777 -0.2314 -0.1903  0.4765
 5115WAT      O31343   0.518   3.477   6.925 -0.6893 -0.2136 -0.1279
 5115WAT     H131344   0.498   3.457   7.017 -2.6758 -1.1040 -0.6947
 5115WAT     H231345   0.611   3.460   6.916 -0.1742  1.1078  2.0109
 5116WAT      O31346   2.076   0.202   7.801  0.3038  0.0016  0.1529
 5116WAT     H131347   2.150   0.206   7.861  0.3547 -3.0691  0.4710
 5116WAT     H231348   2.038   0.290   7.802  2.9178  1.2070  1.2479
 5117WAT      O31349   4.120   3.214   6.052 -0.0167  1.1677  0.0054
 5117WAT     H131350   4.194   3.234   5.996 -0.3994 -1.1308 -1.5090
 5117WAT     H231351   4.119   3.118   6.057 -1.1851  1.2386  2.3871
 5118WAT      O31352   1.104   0.617   1.662 -0.2333  0.2158  0.4168
 5118WAT     H131353   1.148   0.570   1.733 -0.7585 -0.5582  0.2526
 5118WAT     H231354   1.014   0.583   1.664 -0.1975  0.0132 -0.7605
 5119WAT      O31355   4.843   4.128   1.024 -0.2489 -0.2004  0.4521
 5119WAT     H131356   4.896   4.192   1.071  0.0631 -0.5066  0.5249
 5119WAT     H231357   4.799   4.078   1.092  1.3235 -1.6026  0.5006
 5120WAT      O31358   1.164   5.226   0.741  0.2702  0.1390  0.2338
 5120WAT     H131359   1.209   5.175   0.808 -1.5933 -0.6354  0.9405
 5120WAT     H231360   1.083   5.178   0.724 -0.2381  1.3991 -1.1231
 5121WAT      O31361   3.536   0.950   2.298  0.1869 -0.2896 -0.1125
 5121WAT     H131362   3.509   0.861   2.279 -1.2021 -0.4943  2.4025
 5121WAT     H231363   3.461   0.989   2.344  1.4931  1.5027  0.6412
 5122WAT      O31364   0.378   1.582   6.642  0.2969  0.2981 -0.2378
 5122WAT     H131365   0.463   1.596   6.683  1.0189 -0.6229 -1.3198
 5122WAT     H231366   0.367   1.657   6.584 -0.7379  1.6111  1.5922
 5123WAT      O31367   0.600   5.080   7.558 -0.2942  0.4322  1.3024
 5123WAT     H131368   0.688   5.075   7.595  0.4847 -2.7203 -0.6350
 5123WAT     H231369   0.555   5.003   7.591 -0.3766 -1.1285 -2.0399
 5124WAT      O31370   2.069   3.525   7.945 -0.1619  0.6087 -0.1531
 5124WAT     H131371   2.142   3.568   7.990  0.5457  0.0176 -0.7181
 5124WAT     H231372   2.090   3.532   7.852  0.4246 -1.6554 -0.2574
 5125WAT      O31373   0.356   5.033   0.913  0.4051  0.5323  0.1672
 5125WAT     H131374   0.261   5.022   0.925  0.4276 -0.4481 -0.4785
 5125WAT     H231375   0.390   4.944   0.908  1.4674  0.8644  1.0793
 5126WAT      O31376   5.005   1.790   6.004 -0.2163  0.7296 -0.1152
 5126WAT     H131377   4.949   1.860   6.039 -0.3566 -0.1064  1.4165
 5126WAT     H231378   4.974   1.711   6.048 -0.6081 -0.4663 -2.4426
 5127WAT      O31379   4.864   5.724   1.008  0.0418 -0.0850  0.3444
 5127WAT     H131380   4.952   5.751   0.979  0.6890  0.8289  2.8684
 5127WAT     H231381   4.863   5.629   0.997  1.3379 -0.1017  0.2133
 5128WAT      O31382   0.300   0.503   0.746 -0.0688  0.1533 -0.2601
 5128WAT     H131383   0.329   0.535   0.832  0.3258  0.1088 -0.3766
 5128WAT     H231384   0.380   0.496   0.695 -0.2241 -0.4635 -0.4222
 5129WAT      O31385   1.126   2.825   1.676  0.2492  0.3590 -0.2900
 5129WAT     H131386   1.198   2.858   1.731  1.1562  0.7807 -1.6493
 5129WAT     H231387   1.155   2.739   1.648  0.2003  0.5029 -0.7914
 5130WAT      O31388   2.838   2.118   7.909  0.0652  0.5000 -0.0264
 5130WAT     H131389   2.769   2.182   7.925 -0.0709  0.2680  0.3394
 5130WAT     H231390   2.873   2.098   7.996 -0.6026 -0.6997 -0.0078
 5131WAT      O31391   1.277   1.150   0.909 -0.4887 -0.2712  0.2654
 5131WAT     H131392   1.361   1.141   0.954 -1.1609 -0.2900  1.5672
 5131WAT     H231393   1.239   1.062   0.911 -1.2320  0.0523  1.1317
 5132WAT      O31394   2.035   5.593   0.349  0.4241  0.4356  0.0455
 5132WAT     H131395   2.067   5.569   0.262  1.2498  1.2079  0.1217
 5132WAT     H231396   1.991   5.514   0.381 -0.8821  0.4883 -1.5077
 5133WAT      O31397   3.831   4.224   6.456  0.3021 -0.1440 -0.3758
 5133WAT     H131398   3.836   4.192   6.366 -1.6680  1.2955 -1.0728
 5133WAT     H231399   3.860   4.315   6.451  0.6239 -0.1836  0.5416
 5134WAT      O31400   2.599   5.944   1.768 -0.0265  0.1405  0.0407
 5134WAT     H131401   2.616   5.926   1.861 -0.3136 -0.9429 -0.1029
 5134WAT     H231402   2.662   5.890   1.721  0.9783  1.6421 -0.4048
 5135WAT      O31403   6.038   2.447   7.316  0.3808  0.2530 -0.0757
 5135WAT     H131404   6.089   2.406   7.245 -0.6871  0.3916 -0.9401
 5135WAT     H231405   5.993   2.520   7.274 -0.4209  0.2238  0.7111
 5136WAT      O31406   1.009   2.207   7.874 -0.9360  0.8157 -0.3734
 5136WAT     H131407   0.931   2.183   7.824 -1.5578  2.7648 -0.4406
 5136WAT     H231408   1.069   2.242   7.809 -0.0852 -0.4106 -0.2800
 5137WAT      O31409   0.072   4.496   6.692 -0.0610  0.0274 -0.0777
 5137WAT     H131410  -0.003   4.505   6.752  0.1248  3.0435 -0.1138
 5137WAT     H231411   0.032   4.488   6.605 -0.3354 -0.5757  0.1001
 5138WAT      O31412   4.123   4.263   0.174  0.0024 -0.2120 -0.1748
 5138WAT     H131413   4.155   4.184   0.130 -0.2572 -0.3222 -0.1667
 5138WAT     H231414   4.081   4.313   0.104  0.3941  0.0420 -0.2329
 5139WAT      O31415   0.538   4.784   0.228 -0.1189  0.2082 -0.2006
 5139WAT     H131416   0.608   4.769   0.291  1.3919  2.5661 -1.1946
 5139WAT     H231417   0.483   4.851   0.269  0.6857  1.5119 -1.2020
 5140WAT      O31418   3.431   4.981   6.885 -0.2692  0.6530 -0.5341
 5140WAT     H131419   3.366   5.011   6.948 -1.4327 -0.1388 -1.3189
 5140WAT     H231420   3.448   4.890   6.909 -0.0737  0.6095 -0.8316
 5141WAT      O31421   2.444   3.354   0.143  0.5047  0.5204  0.1186
 5141WAT     H131422   2.401   3.428   0.101  0.3143  1.1693  1.4221
 5141WAT     H231423   2.441   3.374   0.236 -1.5495 -2.1598  0.7360
 5142WAT      O31424   0.128   3.179   0.758  0.1851 -0.0762 -0.1844
 5142WAT     H131425   0.036   3.193   0.783 -0.2494  0.6531 -2.0624
 5142WAT     H231426   0.178   3.225   0.825 -0.9312  2.0867 -0.7432
 5143WAT      O31427   3.922   0.224   7.749  0.1382 -0.0956 -0.2545
 5143WAT     H131428   3.858   0.244   7.681  0.0057 -0.1230 -0.1413
 5143WAT     H231429   3.869   0.202   7.826  0.2799 -0.7970 -0.3545
 5144WAT      O31430   0.144   5.918   1.307  0.1962 -0.5364  0.1369
 5144WAT     H131431   0.053   5.895   1.288  0.2779 -0.6378 -0.1348
 5144WAT     H231432   0.195   5.873   1.240  0.5561 -1.5228  1.0488
 5145WAT      O31433   3.633   5.060   1.926 -0.6567  0.5391  0.6995
 5145WAT     H131434   3.627   5.022   2.013  0.4321  0.9959  0.9971
 5145WAT     H231435   3.544   5.053   1.890 -0.3122 -3.5128  0.1644
 5146WAT      O31436   0.795   5.043   7.751  0.1715  0.4089  0.3839
 5146WAT     H131437   0.759   5.005   7.831  0.4122 -1.5997 -0.4070
 5146WAT     H231438   0.874   4.991   7.734  0.5229  1.2876 -0.7595
 5147WAT      O31439   1.454   3.448   7.279 -0.0282  0.3940 -0.0210
 5147WAT     H131440   1.424   3.539   7.282 -0.8096  0.1326  0.2857
 5147WAT     H231441   1.375   3.396   7.292  0.3638 -0.3404 -0.4806
 5148WAT      O31442   0.554   2.742   1.573 -0.2697 -0.4155 -0.4907
 5148WAT     H131443   0.512   2.660   1.546 -0.9753 -1.2732  2.7671
 5148WAT     H231444   0.482   2.804   1.580  0.0976  0.1871 -1.7713
 5149WAT      O31445   0.352   3.496   1.771  0.4764  0.4003  0.4146
 5149WAT     H131446   0.356   3.401   1.782  0.7855  0.2280 -0.9285
 5149WAT     H231447   0.426   3.530   1.822  0.7559 -0.1515  0.3859
 5150WAT      O31448   0.400   1.793   6.093  0.8496  0.3353  0.0143
 5150WAT     H131449   0.354   1.847   6.029  1.0509 -0.8589 -1.2037
 5150WAT     H231450   0.490   1.825   6.091  0.9795 -0.0414 -0.7366
 5151WAT      O31451   1.860   1.996   7.468 -0.1219 -0.1395  0.1441
 5151WAT     H131452   1.907   1.956   7.394 -0.3698 -0.0448 -0.0666
 5151WAT     H231453   1.912   1.973   7.545 -0.8995 -1.9121  0.1935
 5152WAT      O31454   1.215   3.390   0.123  0.3169 -0.1644 -0.9322
 5152WAT     H131455   1.156   3.449   0.170  0.9438  0.8712 -1.3927
 5152WAT     H231456   1.236   3.322   0.187 -1.0241 -0.3226 -0.6291
 5153WAT      O31457   5.057   1.904   0.149  0.7227  0.5068 -0.2605
 5153WAT     H131458   5.092   1.877   0.234 -0.5367 -0.1247  0.0775
 5153WAT     H231459   5.088   1.994   0.138 -0.2038  1.0834  1.4878
 5154WAT      O31460   1.112   5.378   7.268  0.2161 -0.3880  0.3986
 5154WAT     H131461   1.061   5.322   7.327 -2.1616  2.3284  1.1480
 5154WAT     H231462   1.136   5.453   7.322  0.6480  0.7549 -1.3214
 5155WAT      O31463   1.518   2.193   6.407  0.4752  0.4065 -0.3258
 5155WAT     H131464   1.450   2.260   6.398  1.0367  0.8313 -1.6060
 5155WAT     H231465   1.505   2.136   6.332  0.0326 -0.9332  0.7297
 5156WAT      O31466   4.342   1.527   7.884 -0.7838  0.1136  0.3610
 5156WAT     H131467   4.391   1.444   7.885 -1.7653 -0.5352 -1.1841
 5156WAT     H231468   4.281   1.518   7.811 -0.4649  2.4783 -0.2953
 5157WAT      O31469   5.157   1.294   7.327 -0.3704 -0.2448  0.4529
 5157WAT     H131470   5.205   1.375   7.340  0.0728  0.1462 -2.8474
 5157WAT     H231471   5.212   1.227   7.369  1.0229  0.6982  0.2063
 5158WAT      O31472   5.325   2.983   7.653 -0.2883  0.1746 -0.0740
 5158WAT     H131473   5.235   2.986   7.622  0.3586  1.1322 -2.0119
 5158WAT     H231474   5.326   3.040   7.730 -1.0319  1.4911 -0.9931
 5159WAT      O31475   6.118   2.899   6.357 -0.0213  0.3860 -0.3883
 5159WAT     H131476   6.145   2.813   6.389  1.3071  1.2568  0.9906
 5159WAT     H231477   6.134   2.896   6.263 -0.7376 -1.1138 -0.4895
 5160WAT      O31478   4.249   5.410   1.022 -0.2480 -0.0365 -0.2317
 5160WAT     H131479   4.263   5.500   1.054 -2.5009  0.5788 -0.7954
 5160WAT     H231480   4.337   5.377   1.004  0.6494  2.0319  0.0664
 5161WAT      O31481   0.161   2.995   7.387  0.0946 -0.6800 -0.4291
 5161WAT     H131482   0.115   2.997   7.303 -1.0460 -2.8677  0.0571
 5161WAT     H231483   0.232   2.932   7.374 -1.1179 -2.3579  0.6469
 5162WAT      O31484   5.468   1.790   0.345  0.2780 -0.1623  0.1091
 5162WAT     H131485   5.461   1.760   0.254 -0.2509  1.8287 -0.5536
 5162WAT     H231486   5.384   1.833   0.363  0.3597 -0.5569  1.5611
 5163WAT      O31487   0.979   3.894   0.694  0.5200 -0.2497  0.1294
 5163WAT     H131488   0.935   3.830   0.750  1.3749  0.4726  1.7057
 5163WAT     H231489   1.056   3.921   0.745  0.8960  1.0473 -1.0609
 5164WAT      O31490   0.409   1.858   1.858 -0.5992  0.4785  0.3634
 5164WAT     H131491   0.321   1.820   1.861 -0.8102  0.8837 -0.4174
 5164WAT     H231492   0.453   1.822   1.934 -1.0683 -0.6549  0.1223
 5165WAT      O31493   6.143   4.881   0.618  0.2773  0.2618  0.0130
 5165WAT     H131494   6.163   4.905   0.527 -0.2847 -0.7846 -0.4118
 5165WAT     H231495   6.059   4.923   0.636  0.4763  0.6202  0.1157
 5166WAT      O31496   5.526   4.987   1.540 -0.2234  0.5767  0.5638
 5166WAT     H131497   5.451   4.936   1.572  0.8892 -1.2903  0.3536
 5166WAT     H231498   5.575   5.009   1.619  1.0330 -1.6256  0.4996
 5167WAT      O31499   5.461   0.008   7.040 -0.4829 -0.1750 -0.3662
 5167WAT     H131500   5.474   0.102   7.036  1.9316 -0.4190  0.1577
 5167WAT     H231501   5.496  -0.018   7.125 -0.1680 -1.6586 -0.9055
 5168WAT      O31502   2.715   2.528   6.923 -0.4216  0.3721  0.3103
 5168WAT     H131503   2.807   2.536   6.900 -0.0014 -0.6242  1.5156
 5168WAT     H231504   2.714   2.470   6.999 -2.0084  0.7145  0.5948
 5169WAT      O31505   1.692   4.477   1.318 -0.2038 -0.0318 -0.3536
 5169WAT     H131506   1.731   4.526   1.246 -0.4999 -0.7164 -0.9901
 5169WAT     H231507   1.744   4.397   1.325  1.7508  1.3243  2.1929
 5170WAT      O31508   0.588   1.377   1.734  0.0797 -0.1929 -0.4271
 5170WAT     H131509   0.668   1.429   1.745  1.0023 -1.6528  0.0240
 5170WAT     H231510   0.618   1.286   1.741 -1.9081 -0.7643  1.9016
 5171WAT      O31511   2.785   3.529   0.552  1.0446 -0.2026  0.0310
 5171WAT     H131512   2.807   3.489   0.636  0.4344  0.5611  0.5714
 5171WAT     H231513   2.868   3.529   0.503  1.2172 -1.4265  0.2888
 5172WAT      O31514   6.054   1.723   6.367  0.0311 -0.3338  0.0471
 5172WAT     H131515   6.003   1.658   6.416 -0.6161 -0.0475 -0.2373
 5172WAT     H231516   6.133   1.736   6.420 -0.5587 -0.1916  0.9188
 5173WAT      O31517   4.893   2.795   6.884  0.3200 -0.3568  0.3263
 5173WAT     H131518   4.847   2.879   6.890 -0.5904 -0.9207  1.6086
 5173WAT     H231519   4.842   2.745   6.819 -0.2280 -0.5719  0.9130
 5174WAT      O31520   5.072   4.517   7.433  0.5039 -0.1451  0.6212
 5174WAT     H131521   5.166   4.504   7.436  0.5644  0.2671  0.5814
 5174WAT     H231522   5.038   4.438   7.391  0.8864 -0.0434  0.1146
 5175WAT      O31523   2.452   4.366   6.178 -0.1972 -0.4022 -0.4904
 5175WAT     H131524   2.405   4.397   6.100  1.6559 -0.8452 -1.8401
 5175WAT     H231525   2.504   4.292   6.147  0.8583 -0.3777  1.1024
 5176WAT      O31526   3.490   0.481   7.204 -0.2537  0.5005 -0.1110
 5176WAT     H131527   3.477   0.421   7.278 -2.2032 -0.5480 -1.2112
 5176WAT     H231528   3.539   0.554   7.241  0.4937 -0.8444  1.7616
 5177WAT      O31529   0.682   0.834   0.892  0.4827  0.1141  0.1686
 5177WAT     H131530   0.700   0.926   0.913 -0.3967  0.6020 -1.0500
 5177WAT     H231531   0.590   0.822   0.914  0.9446 -0.9106  1.6656
 5178WAT      O31532   2.520   4.723   1.476 -0.2470 -0.3965  0.0772
 5178WAT     H131533   2.545   4.813   1.497  1.8816 -0.6768 -0.8936
 5178WAT     H231534   2.511   4.679   1.560  0.7927  0.2426  0.5401
 5179WAT      O31535   3.930   4.793   1.330 -0.4519 -0.8288  0.0190
 5179WAT     H131536   3.924   4.699   1.345 -0.5900 -0.7332  0.5997
 5179WAT     H231537   3.890   4.832   1.408  1.2728 -0.2638  0.6831
 5180WAT      O31538   1.654   1.414   6.289 -0.5296 -0.3378 -0.3355
 5180WAT     H131539   1.567   1.411   6.329  0.2166 -1.3370  1.3116
 5180WAT     H231540   1.639   1.390   6.198 -2.1203  0.6811 -0.3997
 5181WAT      O31541   5.323   0.245   7.251 -0.1060  0.2722 -0.2282
 5181WAT     H131542   5.382   0.254   7.325 -0.2576  2.0679 -0.2585
 5181WAT     H231543   5.237   0.231   7.290  0.0875 -0.7484 -0.1419
 5182WAT      O31544   5.522   0.739   7.726 -0.6186  0.3254 -0.2688
 5182WAT     H131545   5.495   0.747   7.818  1.8579  0.1810  0.5390
 5182WAT     H231546   5.443   0.760   7.676 -1.9181  0.8589  1.8743
 5183WAT      O31547   0.067   0.047   1.000 -0.5453 -0.0142 -0.4552
 5183WAT     H131548   0.046   0.134   1.032 -0.3977  0.3309 -1.2732
 5183WAT     H231549   0.106   0.002   1.076 -1.4370  0.3233  0.2173
 5184WAT      O31550   2.954   5.091   6.474 -0.1382 -0.2892  0.3401
 5184WAT     H131551   3.019   5.025   6.448  0.0533 -0.2438  0.6889
 5184WAT     H231552   2.872   5.041   6.484  0.5053 -0.9919  3.0131
 5185WAT      O31553   0.312   3.481   0.285  0.1675  0.2913 -0.1537
 5185WAT     H131554   0.283   3.411   0.344  0.3196  0.0757 -0.3316
 5185WAT     H231555   0.236   3.497   0.229  0.4026 -0.2975 -0.6421
 5186WAT      O31556   5.076   2.426   6.206  0.1663 -0.6081  0.2608
 5186WAT     H131557   5.111   2.442   6.294 -1.6874 -0.3068  0.9971
 5186WAT     H231558   5.029   2.506   6.184  1.1766 -0.4048 -1.3416
 5187WAT      O31559   4.400   3.022   1.366 -0.1986 -0.3596 -0.2253
 5187WAT     H131560   4.374   3.113   1.358 -2.3169 -0.6985  1.6659
 5187WAT     H231561   4.457   3.006   1.291  0.4372  2.5469 -0.4741
 5188WAT      O31562   0.733   5.168   6.177 -0.1727 -0.1810 -0.1463
 5188WAT     H131563   0.716   5.262   6.174  1.0740  0.0600 -0.0455
 5188WAT     H231564   0.828   5.160   6.181 -0.2018 -1.4676 -1.0740
 5189WAT      O31565   3.241   0.490   6.778 -0.1899 -0.0552  0.0710
 5189WAT     H131566   3.192   0.539   6.844 -0.3390  0.5669 -0.4940
 5189WAT     H231567   3.293   0.428   6.829 -1.5572 -0.7468  0.6908
 5190WAT      O31568   0.981   3.135   7.585  0.5790 -0.5742  0.0481
 5190WAT     H131569   0.896   3.180   7.590  0.1051 -1.1969 -1.6651
 5190WAT     H231570   1.027   3.162   7.665 -0.6591  0.9247  0.3087
 5191WAT      O31571   4.469   1.823   2.077 -0.2363  0.0888  0.1657
 5191WAT     H131572   4.421   1.740   2.080 -0.0802  0.0142  0.9881
 5191WAT     H231573   4.551   1.802   2.033  0.3962 -0.5368  1.5553
 5192WAT      O31574   5.762   1.032   1.342 -0.5783  0.6609 -0.2496
 5192WAT     H131575   5.687   0.976   1.362  0.0512 -0.6074 -1.2809
 5192WAT     H231576   5.816   1.028   1.421 -1.4008  1.2999  0.3659
 5193WAT      O31577   0.422   4.238   0.087  0.2651 -0.0122 -0.4625
 5193WAT     H131578   0.346   4.204   0.134  0.4127 -0.0529 -0.2524
 5193WAT     H231579   0.417   4.333   0.100  0.7078 -0.0780  0.2550
 5194WAT      O31580   0.826   5.396   1.141 -0.2358  0.1426  0.1675
 5194WAT     H131581   0.831   5.318   1.086  3.9120 -0.5716  1.1858
 5194WAT     H231582   0.878   5.462   1.094  0.1476  0.7626  1.4182
 5195WAT      O31583   2.074   6.143   0.543  0.4431 -0.1378  0.4958
 5195WAT     H131584   2.130   6.204   0.591  1.0860  0.2851 -0.7492
 5195WAT     H231585   2.115   6.057   0.557  0.1397 -0.1477  1.3812
 5196WAT      O31586   2.765   2.090   7.286 -0.0374 -0.1230  0.1282
 5196WAT     H131587   2.688   2.121   7.237 -0.0802 -2.0376 -1.1133
 5196WAT     H231588   2.734   2.081   7.376 -0.8011  0.6587 -0.0384
 5197WAT      O31589   5.459   2.616   0.988 -0.4570 -0.4193  0.0366
 5197WAT     H131590   5.408   2.611   0.907 -1.3639 -0.1466  0.5722
 5197WAT     H231591   5.398   2.589   1.057  0.6801 -1.9330  0.4954
 5198WAT      O31592   5.535   0.243   7.428 -0.6265  0.0372  0.2404
 5198WAT     H131593   5.545   0.265   7.521 -1.9985  0.8000  0.2192
 5198WAT     H231594   5.600   0.298   7.384  0.5315 -0.8365  0.7740
 5199WAT      O31595   0.674   5.804   7.448 -0.3801  0.0059  0.5531
 5199WAT     H131596   0.666   5.769   7.359 -0.1424 -0.9420  0.8819
 5199WAT     H231597   0.689   5.726   7.502 -0.9916  0.5186  1.4858
 5200WAT      O31598   4.327   5.121   1.209 -0.0462  0.0474 -0.7338
 5200WAT     H131599   4.408   5.153   1.250  0.4055 -0.8363 -0.9041
 5200WAT     H231600   4.269   5.102   1.283 -1.0647  2.9778 -0.6472
 5201WAT      O31601   2.594   1.893   0.075  0.1175 -0.2823  0.6332
 5201WAT     H131602   2.500   1.875   0.064 -0.3339  0.9857  2.1314
 5201WAT     H231603   2.623   1.918  -0.012 -0.9808 -0.5038  0.1785
 5202WAT      O31604   6.063   4.313   0.735  0.5744 -0.5417 -0.0476
 5202WAT     H131605   6.068   4.396   0.782  0.4774 -0.7544  0.3425
 5202WAT     H231606   5.994   4.264   0.779  0.3505 -0.6730 -0.5312
 5203WAT      O31607   4.982   1.261   0.283  0.1347 -0.1500 -0.1399
 5203WAT     H131608   4.974   1.278   0.377  0.0328  0.8589 -0.3102
 5203WAT     H231609   4.903   1.210   0.261  0.4026 -0.8021  0.4013
 5204WAT      O31610   4.857   5.192   0.095 -0.2352 -0.3356 -0.1576
 5204WAT     H131611   4.881   5.123   0.034 -1.0720 -0.1145 -0.7583
 5204WAT     H231612   4.763   5.205   0.080 -1.0932 -2.0242  2.9579
 5205WAT      O31613   3.309   5.414   2.548  0.2714  0.2498 -0.0874
 5205WAT     H131614   3.307   5.504   2.580 -0.5236 -0.1309  0.9818
 5205WAT     H231615   3.352   5.365   2.618 -0.3084 -0.3934 -0.1761
 5206WAT      O31616   1.439   2.250   1.251 -0.2841 -0.3045 -0.3978
 5206WAT     H131617   1.420   2.158   1.271  1.1005 -0.3788  0.7000
 5206WAT     H231618   1.436   2.255   1.156 -0.8631 -1.3794 -0.4447
 5207WAT      O31619   1.831   4.397   7.012 -0.3424 -0.0414  0.4454
 5207WAT     H131620   1.856   4.487   7.032 -0.8826  0.2558 -0.1886
 5207WAT     H231621   1.874   4.344   7.080  0.3468  0.6466  0.5583
 5208WAT      O31622   2.933   4.100   6.468 -0.2943  0.2431  0.2636
 5208WAT     H131623   3.014   4.068   6.427  0.2002 -1.2687  2.2456
 5208WAT     H231624   2.871   4.107   6.396  1.2661  0.3096 -1.1401
 5209WAT      O31625   4.984   1.556   1.231 -0.0644  0.3010  0.0574
 5209WAT     H131626   5.063   1.515   1.265  0.3317  1.9375  1.2269
 5209WAT     H231627   5.017   1.629   1.177 -0.7481  1.2533  0.8966
 5210WAT      O31628   4.825   4.057   1.814  0.1525  0.5282  0.3756
 5210WAT     H131629   4.743   4.100   1.838  0.3345  2.0280 -1.4932
 5210WAT     H231630   4.892   4.102   1.866  0.3544  2.7163 -1.6349
 5211WAT      O31631   0.093   4.865   0.362 -0.2274  0.2079  0.0227
 5211WAT     H131632   0.042   4.784   0.359 -2.0666  1.3376 -1.3587
 5211WAT     H231633   0.159   4.855   0.293 -0.4045 -0.1310 -0.0981
 5212WAT      O31634   5.523   4.212   5.987  0.4422  0.2293  0.0431
 5212WAT     H131635   5.545   4.304   5.968 -1.0329  0.5836 -0.1427
 5212WAT     H231636   5.607   4.168   5.997  1.1940  1.3932 -0.8981
 5213WAT      O31637   1.562   3.993   5.919 -0.1949  0.0753  0.1228
 5213WAT     H131638   1.633   4.040   5.876 -0.3973  0.9775  0.7326
 5213WAT     H231639   1.499   3.975   5.850 -0.5324  1.5275  0.0301
 5214WAT      O31640   4.210   1.935   1.221  0.3281  0.0294  0.0346
 5214WAT     H131641   4.212   2.020   1.177 -0.1096  0.1343  0.2107
 5214WAT     H231642   4.261   1.949   1.301 -0.5753  0.4115  0.5556
 5215WAT      O31643   5.793   4.443   6.858  0.0920  0.8325  0.8773
 5215WAT     H131644   5.767   4.386   6.787 -0.1361 -0.0796  1.6805
 5215WAT     H231645   5.736   4.419   6.931  0.3386  1.7257  1.3846
 5216WAT      O31646   0.752   3.607   2.312 -0.0001  0.0986 -0.0911
 5216WAT     H131647   0.694   3.598   2.236 -1.8382  0.8507  1.1798
 5216WAT     H231648   0.773   3.516   2.336 -1.9061 -0.2608  0.3358
 5217WAT      O31649   5.981   3.399   6.667  0.2245  0.3431  0.7139
 5217WAT     H131650   5.932   3.422   6.746 -0.6235 -1.3119  0.7270
 5217WAT     H231651   5.924   3.427   6.595 -0.2275 -0.5155  0.7240
 5218WAT      O31652   2.548   4.653   1.070  0.5267  0.4514  0.0326
 5218WAT     H131653   2.477   4.712   1.044 -0.1156 -0.2909  0.0493
 5218WAT     H231654   2.546   4.583   1.004  1.2535  0.4252  0.0310
 5219WAT      O31655   5.325   6.202   6.823 -0.2938 -0.8867 -0.1998
 5219WAT     H131656   5.375   6.210   6.905 -0.3413  1.2268 -0.3384
 5219WAT     H231657   5.370   6.260   6.762 -0.1106 -2.6389 -1.7983
 5220WAT      O31658   4.835   1.078   5.541 -0.2475  0.0703 -0.6297
 5220WAT     H131659   4.760   1.087   5.598 -0.9373  0.0745 -1.5108
 5220WAT     H231660   4.804   1.022   5.469 -0.1680  1.9959 -2.2457
 5221WAT      O31661   3.575   2.905   5.748 -0.7579 -0.0841  0.3384
 5221WAT     H131662   3.482   2.887   5.760 -0.6516 -0.4995  0.5686
 5221WAT     H231663   3.598   2.858   5.668 -0.4882 -0.9620  0.9173
 5222WAT      O31664   2.707   2.406   7.158 -0.2575 -0.2924  0.2663
 5222WAT     H131665   2.657   2.325   7.168 -2.8998  0.9042 -1.9413
 5222WAT     H231666   2.663   2.468   7.217  1.4979 -0.2930  1.6458
 5223WAT      O31667   4.729   1.688   2.017 -0.5458  0.1039  0.5260
 5223WAT     H131668   4.665   1.643   1.962 -0.3524  0.1383  0.2700
 5223WAT     H231669   4.776   1.617   2.061 -1.1747  0.0892  1.2021
 5224WAT      O31670   0.064   0.727   0.603  0.1824  0.6413  0.1499
 5224WAT     H131671   0.002   0.667   0.560  1.0656  0.7261 -1.2926
 5224WAT     H231672   0.066   0.698   0.694 -0.7162 -0.4183 -0.1494
 5225WAT      O31673   1.028   6.086   1.303  0.3288  0.3982 -0.2115
 5225WAT     H131674   1.011   6.003   1.257  0.4762  1.1579 -1.7020
 5225WAT     H231675   0.971   6.083   1.380  0.4093 -1.1267 -0.1793
 5226WAT      O31676   4.886   1.377   1.041  0.3437  0.4025 -0.4802
 5226WAT     H131677   4.811   1.333   1.080 -0.6685  2.3950 -0.0813
 5226WAT     H231678   4.912   1.443   1.106 -0.0868  2.4088 -2.2411
 5227WAT      O31679   3.092   5.946   2.157  0.0542 -0.1156 -0.2639
 5227WAT     H131680   3.054   5.861   2.179 -1.7568  0.4345 -1.0632
 5227WAT     H231681   3.093   5.949   2.062  0.1630  0.7408 -0.2472
 5228WAT      O31682   0.553   2.672   6.108  0.6596 -0.2417 -0.3873
 5228WAT     H131683   0.473   2.690   6.158 -0.0951  0.6542 -1.8648
 5228WAT     H231684   0.524   2.619   6.034  1.8010 -1.7133  0.1555
 5229WAT      O31685   1.785   0.800   1.121  0.1781  0.1381 -0.6909
 5229WAT     H131686   1.772   0.827   1.030 -1.7408  1.2195 -0.1493
 5229WAT     H231687   1.842   0.868   1.158 -2.1333  1.8869 -0.1450
 5230WAT      O31688   2.062   1.202   5.717  0.3512  0.3710  0.3337
 5230WAT     H131689   2.120   1.182   5.643  0.4173  0.3048  0.4037
 5230WAT     H231690   2.011   1.277   5.688  1.4942  1.3636  0.8311
 5231WAT      O31691   4.398   2.335   6.014  0.3582  0.2598  0.7068
 5231WAT     H131692   4.335   2.394   5.971 -1.3338  0.7211  3.5350
 5231WAT     H231693   4.347   2.256   6.032  1.3705 -0.3895  0.7842
 5232WAT      O31694   0.346   2.934   6.602 -0.2334  0.3488  0.2417
 5232WAT     H131695   0.398   2.968   6.529 -0.8981  2.4594  0.6576
 5232WAT     H231696   0.376   2.844   6.614  0.4068  0.1888 -2.1281
 5233WAT      O31697   0.082   5.565   2.049 -0.1406  0.4588 -0.2240
 5233WAT     H131698   0.159   5.566   2.105 -0.3262 -1.6366  0.1407
 5233WAT     H231699   0.109   5.615   1.972  0.9107  1.3555  0.6807
 5234WAT      O31700   4.607   1.220   6.284 -0.0385  0.3998 -0.2756
 5234WAT     H131701   4.629   1.183   6.370 -2.9675  0.1223  0.4682
 5234WAT     H231702   4.691   1.236   6.243  1.4535 -1.3326  1.8462
 5235WAT      O31703   1.440   5.373   0.354  0.3536  0.1653  0.0384
 5235WAT     H131704   1.429   5.468   0.358  0.3545  0.1856 -0.3446
 5235WAT     H231705   1.405   5.341   0.437 -0.9356  0.3848 -0.4008
 5236WAT      O31706   4.663   0.818   0.780  0.2552  0.1148 -0.2073
 5236WAT     H131707   4.586   0.773   0.746  0.1568 -0.0905  0.2737
 5236WAT     H231708   4.684   0.772   0.862  0.9698  0.0821 -0.3996
 5237WAT      O31709   3.972   0.479   7.284  0.1478  0.3686  1.0490
 5237WAT     H131710   3.940   0.569   7.274 -1.7792 -0.2878  0.8614
 5237WAT     H231711   4.009   0.477   7.372  1.3678  1.6280  0.6211
 5238WAT      O31712   4.184   5.126   0.496  0.0719 -0.7623 -0.5256
 5238WAT     H131713   4.259   5.154   0.548 -0.3799 -1.3222  0.4552
 5238WAT     H231714   4.108   5.151   0.547 -0.4803  0.8798 -2.0720
 5239WAT      O31715   1.023   5.582   5.421 -0.4968  0.3507  0.0279
 5239WAT     H131716   1.065   5.531   5.490 -2.5229 -0.9488  0.3890
 5239WAT     H231717   1.017   5.522   5.346 -0.4910  0.9408 -0.4513
 5240WAT      O31718   0.849   1.200   7.019  0.2436 -0.1465 -0.0672
 5240WAT     H131719   0.783   1.210   6.950 -0.9284  1.2196  1.1757
 5240WAT     H231720   0.841   1.109   7.048 -0.5349 -0.2175 -0.4834
 5241WAT      O31721   1.834   6.156   1.881  0.8056  0.3307 -0.1511
 5241WAT     H131722   1.866   6.228   1.934 -1.4812 -0.1049  1.9940
 5241WAT     H231723   1.777   6.197   1.816  2.0846  0.6750 -1.1155
 5242WAT      O31724   4.101   5.343   1.333 -0.2995 -0.2759 -0.3912
 5242WAT     H131725   4.032   5.277   1.321 -1.1837  0.6453 -0.5418
 5242WAT     H231726   4.065   5.403   1.399  0.8908 -0.4657  0.4614
 5243WAT      O31727   3.691   4.460   7.707 -0.3115 -0.2797  0.3006
 5243WAT     H131728   3.668   4.407   7.783 -1.8279 -0.5950 -0.3355
 5243WAT     H231729   3.651   4.414   7.633  0.6732  0.3032 -0.6245
 5244WAT      O31730   3.334   0.831   7.198  0.1940 -0.1424 -0.2967
 5244WAT     H131731   3.280   0.904   7.168  2.4065  1.4281 -0.7086
 5244WAT     H231732   3.321   0.763   7.133 -1.8569 -0.1389  0.0515
 5245WAT      O31733   1.107   2.533   7.685  0.7290 -0.2226  0.4033
 5245WAT     H131734   1.143   2.612   7.727  2.0396 -0.6040  0.0544
 5245WAT     H231735   1.053   2.566   7.614 -1.3517  0.4393  2.1883
 5246WAT      O31736   2.389   4.837   0.655 -0.3226  0.1154 -0.4145
 5246WAT     H131737   2.307   4.842   0.704 -0.3289  0.4566 -0.4570
 5246WAT     H231738   2.408   4.928   0.631  1.0948  0.3154  1.2835
 5247WAT      O31739   1.247   3.870   6.605 -0.1090 -0.9693  0.5199
 5247WAT     H131740   1.186   3.911   6.666 -1.5589 -0.4873 -1.1893
 5247WAT     H231741   1.234   3.776   6.618 -0.7865 -0.8688  0.5894
 5248WAT      O31742   5.366   1.660   5.783  0.4548 -0.3167  0.0434
 5248WAT     H131743   5.306   1.700   5.846 -0.1995  1.0387 -1.3868
 5248WAT     H231744   5.452   1.668   5.825 -0.1610 -1.0904  1.5378
 5249WAT      O31745   3.434   5.698   7.012 -0.1853 -0.3216 -0.7327
 5249WAT     H131746   3.339   5.698   6.999 -0.0080  1.4193 -2.5773
 5249WAT     H231747   3.470   5.706   6.923  1.6680 -0.4336 -0.0289
 5250WAT      O31748   1.684   3.991   0.048  0.0995  0.5122  0.4000
 5250WAT     H131749   1.765   3.981  -0.002 -0.9547 -0.0128 -1.2790
 5250WAT     H231750   1.623   4.031  -0.013 -0.8094  1.3180  1.7763
 5251WAT      O31751   1.651   5.975   7.477  0.0911  0.3345  0.2244
 5251WAT     H131752   1.727   6.013   7.432  0.2898  2.1059  1.9004
 5251WAT     H231753   1.582   6.040   7.468 -0.7367 -0.5285  0.1338
 5252WAT      O31754   3.242   4.298   1.436  0.8344 -0.1195  0.3542
 5252WAT     H131755   3.222   4.296   1.342 -1.5220 -0.2257  0.8047
 5252WAT     H231756   3.240   4.390   1.460  1.0601 -0.1204  0.3842
 5253WAT      O31757   1.829   1.056   0.956  0.2735 -0.1091 -0.5018
 5253WAT     H131758   1.856   1.114   0.885  0.9757 -0.7409 -0.7716
 5253WAT     H231759   1.820   1.113   1.033  0.5283  0.4144 -0.8596
 5254WAT      O31760   1.455   5.485   5.950 -0.7618  0.0084  0.5482
 5254WAT     H131761   1.441   5.579   5.955 -1.2162 -0.1146  2.2720
 5254WAT     H231762   1.487   5.461   6.036  0.3724 -1.2732 -0.1950
 5255WAT      O31763   3.606   0.212   1.066 -0.1064 -0.6272 -0.9447
 5255WAT     H131764   3.532   0.247   1.117  1.8834 -1.7217  3.1522
 5255WAT     H231765   3.575   0.212   0.976 -3.8141  2.1533  0.0627
 5256WAT      O31766   1.841   4.049   1.011  0.2656 -0.0452  0.1830
 5256WAT     H131767   1.934   4.043   1.032  0.1504  1.7995  1.4774
 5256WAT     H231768   1.825   3.977   0.950  1.9195 -2.0752  2.0199
 5257WAT      O31769   0.012   0.721   1.274  0.6534  0.2100 -0.7084
 5257WAT     H131770  -0.018   0.682   1.357 -2.3500 -0.9227 -2.1803
 5257WAT     H231771  -0.049   0.794   1.259  2.2746  1.5262 -1.1209
 5258WAT      O31772   0.653   5.414   0.500  0.5979  0.5029  0.1051
 5258WAT     H131773   0.705   5.491   0.474  1.9969  0.3610  2.2065
 5258WAT     H231774   0.687   5.343   0.446  1.2304  0.8199  0.0728
 5259WAT      O31775   2.358   5.395   1.059  0.3971  0.4610 -0.2705
 5259WAT     H131776   2.364   5.345   0.977 -0.3651  1.0067 -0.6752
 5259WAT     H231777   2.270   5.432   1.057  1.0553  2.1096 -0.1532
 5260WAT      O31778   2.448   5.770   7.139 -0.7135 -0.2312 -0.2660
 5260WAT     H131779   2.417   5.853   7.104 -0.2164  0.3637  0.6683
 5260WAT     H231780   2.396   5.704   7.093 -1.6304  0.6184 -0.4881
 5261WAT      O31781   5.494   5.221   6.661 -0.1458 -0.2745  0.5498
 5261WAT     H131782   5.551   5.295   6.644 -0.3654  0.5422  2.9098
 5261WAT     H231783   5.410   5.245   6.620 -0.2062  0.7892  1.2710
 5262WAT      O31784   3.506   0.695   7.385  0.3200 -0.0253 -0.1762
 5262WAT     H131785   3.446   0.646   7.440  0.4693  0.9160  0.8572
 5262WAT     H231786   3.449   0.755   7.336  0.1873 -0.8629 -1.0731
 5263WAT      O31787   1.587   5.726   7.326 -0.0654 -0.0813 -1.0009
 5263WAT     H131788   1.610   5.795   7.389 -0.6312 -0.5435 -0.2743
 5263WAT     H231789   1.574   5.773   7.244  0.6460  0.5426 -0.7743
 5264WAT      O31790   3.304   5.526   0.379  0.2463 -0.2192 -0.1399
 5264WAT     H131791   3.213   5.503   0.399  0.3402 -0.9790 -0.5684
 5264WAT     H231792   3.355   5.451   0.411  0.7364  0.2687  0.2309
 5265WAT      O31793   4.368   0.305   0.703 -0.1952 -0.3291  0.2079
 5265WAT     H131794   4.356   0.243   0.631  2.5769  0.0112 -0.6601
 5265WAT     H231795   4.360   0.391   0.661  0.1232 -0.1248  0.5643
 5266WAT      O31796   2.326   1.007   7.458 -0.0095  0.5586  0.1078
 5266WAT     H131797   2.237   0.987   7.488 -0.0792  1.5479  0.5802
 5266WAT     H231798   2.375   0.927   7.475 -0.8948 -0.1439 -0.5276
 5267WAT      O31799   2.879   3.671   7.553 -0.4126 -0.1649 -0.2584
 5267WAT     H131800   2.815   3.602   7.569 -2.4444  1.7036  0.0723
 5267WAT     H231801   2.928   3.679   7.635  0.6784 -1.9229 -0.6680
 5268WAT      O31802   2.478   6.171   7.280 -0.2349 -0.1091  0.3483
 5268WAT     H131803   2.393   6.149   7.240 -0.9004  0.9246  1.1513
 5268WAT     H231804   2.461   6.173   7.374  0.3068  1.5607  0.4442
 5269WAT      O31805   3.309   4.473   6.092  0.8536  0.0906  0.5739
 5269WAT     H131806   3.320   4.407   6.023  0.4415  1.3105 -0.7066
 5269WAT     H231807   3.274   4.424   6.167  1.5016 -1.3054 -0.0044
 5270WAT      O31808   4.908   2.814   0.521 -0.1555 -0.6483  0.1937
 5270WAT     H131809   4.963   2.890   0.501 -0.5836 -0.3065  0.2917
 5270WAT     H231810   4.870   2.834   0.607 -2.9352  0.6375 -1.1851
 5271WAT      O31811   5.353   2.177   0.891  0.1491  0.2675  0.0338
 5271WAT     H131812   5.365   2.116   0.964  0.2320 -0.4497 -0.5679
 5271WAT     H231813   5.442   2.198   0.863  0.1069 -0.1295 -0.4061
 5272WAT      O31814   4.108   3.961   6.817 -0.9871  0.6340 -0.4511
 5272WAT     H131815   4.189   4.010   6.802 -0.7319  0.3821  0.0828
 5272WAT     H231816   4.039   4.020   6.789 -0.7448  1.6769  1.0326
 5273WAT      O31817   2.091   6.183   0.230  0.1335 -0.1876  0.2783
 5273WAT     H131818   2.063   6.152   0.316  0.1526  1.3765  0.8804
 5273WAT     H231819   2.021   6.243   0.203  1.8853  2.3041  0.9501
 5274WAT      O31820   0.105   2.914   1.078  0.0281 -0.2425  0.0889
 5274WAT     H131821   0.012   2.891   1.079  0.0538 -0.4397  1.9587
 5274WAT     H231822   0.108   3.002   1.117  0.7295 -0.8250  1.3999
 5275WAT      O31823   5.663   3.249   6.552  0.0326  0.6824  0.4583
 5275WAT     H131824   5.642   3.175   6.608 -0.1105 -0.7344 -1.3953
 5275WAT     H231825   5.741   3.221   6.504 -0.3598  1.4841 -0.6892
 5276WAT      O31826   0.508   3.711   2.446 -0.1463 -0.0519 -0.0094
 5276WAT     H131827   0.601   3.710   2.426 -0.4085  0.1164 -1.3037
 5276WAT     H231828   0.466   3.675   2.368 -1.1316 -0.7302  0.8060
 5277WAT      O31829   3.363   1.569   2.010 -0.2874 -0.5081 -0.2131
 5277WAT     H131830   3.335   1.577   2.101  0.7482 -1.4786  0.2210
 5277WAT     H231831   3.282   1.559   1.960 -0.8514 -0.1436  0.6205
 5278WAT      O31832   1.061   3.355   5.756 -0.1488 -0.3179 -0.0198
 5278WAT     H131833   1.124   3.426   5.743  1.0715 -1.2479  0.6447
 5278WAT     H231834   1.084   3.290   5.689 -1.7986  0.2250 -1.1910
 5279WAT      O31835   4.242   6.097   7.097 -0.1317 -0.1597  0.0693
 5279WAT     H131836   4.333   6.078   7.118  0.4892  1.2224 -1.1886
 5279WAT     H231837   4.228   6.185   7.131 -0.1391  0.7330 -2.0997
 5280WAT      O31838   0.002   6.051   0.527  0.1969 -0.3043  0.5796
 5280WAT     H131839   0.014   6.124   0.587  1.3590 -0.5137  0.6243
 5280WAT     H231840   0.062   5.984   0.558  0.1400 -0.7645 -0.2722
 5281WAT      O31841   4.011   6.005   6.731  0.1379  0.2837 -0.2423
 5281WAT     H131842   3.925   6.040   6.707 -0.8171 -1.7459  0.0401
 5281WAT     H231843   4.067   6.083   6.740 -1.4753  1.6008 -1.1154
 5282WAT      O31844   5.421   3.296   6.831 -0.0072  0.6228  0.0878
 5282WAT     H131845   5.390   3.256   6.750  4.0647 -2.4321 -0.2856
 5282WAT     H231846   5.357   3.269   6.897 -1.0194 -0.6890 -1.3586
 5283WAT      O31847   2.290   4.285   0.526  0.7390  0.0226  0.5218
 5283WAT     H131848   2.267   4.223   0.457  0.5155  0.8132 -0.1321
 5283WAT     H231849   2.372   4.251   0.562  1.3772  0.1163 -0.7917
 5284WAT      O31850   1.854   1.192   6.786  0.2501 -0.0865 -0.2423
 5284WAT     H131851   1.779   1.144   6.821 -0.9280  1.5124 -0.4128
 5284WAT     H231852   1.929   1.137   6.803 -0.3696  0.0293  3.7306
 5285WAT      O31853   4.473   2.873   1.968  0.2610  0.1272 -0.2461
 5285WAT     H131854   4.483   2.900   1.877  2.6979  0.2535 -0.0074
 5285WAT     H231855   4.551   2.821   1.986 -0.4823 -0.4293  1.6014
 5286WAT      O31856   4.287   2.405   5.744  0.4680 -0.1974 -0.2596
 5286WAT     H131857   4.242   2.406   5.659 -0.0923 -1.8552 -0.0109
 5286WAT     H231858   4.295   2.498   5.767  0.1640  0.2690 -1.8644
 5287WAT      O31859   3.609   1.558   6.605 -0.0537  0.0503  0.3268
 5287WAT     H131860   3.517   1.584   6.595 -0.3252 -0.9416  0.1591
 5287WAT     H231861   3.615   1.528   6.696 -0.2744 -1.3039 -0.0892
 5288WAT      O31862   2.018   4.456   5.717  0.1062 -0.1393 -0.0336
 5288WAT     H131863   2.016   4.361   5.702  0.0804 -0.0446 -0.6505
 5288WAT     H231864   2.069   4.466   5.798  0.6834 -0.6408 -0.3250
 5289WAT      O31865   4.492   4.103   6.566 -0.3884  0.5888 -0.3562
 5289WAT     H131866   4.587   4.105   6.551 -0.5095 -1.6466 -1.9492
 5289WAT     H231867   4.455   4.075   6.482 -2.0873 -2.6106  1.2447
 5290WAT      O31868   2.936   1.530   7.283  0.2881  0.4465 -0.0909
 5290WAT     H131869   2.868   1.536   7.217  1.4671  0.0350 -1.3946
 5290WAT     H231870   2.934   1.439   7.312 -0.0111  0.5491  0.2262
 5291WAT      O31871   1.052   5.395   7.686 -0.5173 -0.0118  0.8824
 5291WAT     H131872   1.075   5.338   7.759 -1.5121  0.1050  1.3009
 5291WAT     H231873   1.023   5.477   7.726 -1.1180  0.0406  0.3758
 5292WAT      O31874   1.041   1.774   1.954 -0.1448  0.0614  0.4330
 5292WAT     H131875   0.953   1.808   1.938 -0.1986 -0.0105  0.5734
 5292WAT     H231876   1.068   1.815   2.037 -0.2242 -0.2616  0.6217
 5293WAT      O31877   3.482   5.230   2.676 -0.3574  0.5294  0.4162
 5293WAT     H131878   3.567   5.267   2.653  0.7355  0.1545  3.3379
 5293WAT     H231879   3.486   5.139   2.648 -0.5234  0.9542 -1.0350
 5294WAT      O31880   2.118   5.689   7.250  0.2619  0.0600  0.0124
 5294WAT     H131881   2.143   5.780   7.240 -0.7260  0.4848  1.1149
 5294WAT     H231882   2.105   5.678   7.345  2.1676 -1.7341  0.1400
 5295WAT      O31883   0.110   5.235   7.926 -0.1381 -0.1601  0.0301
 5295WAT     H131884   0.129   5.162   7.866  2.9024  0.6976 -0.2190
 5295WAT     H231885   0.112   5.313   7.870  1.4545  0.5316  0.9773
 5296WAT      O31886   0.625   1.741   0.599  0.0719 -0.0063  0.6140
 5296WAT     H131887   0.668   1.826   0.610 -1.0467  0.8967 -1.4164
 5296WAT     H231888   0.538   1.752   0.637  0.0831 -0.3792  0.7482
 5297WAT      O31889   3.925   0.686   7.833  0.1247  0.6184 -0.5632
 5297WAT     H131890   3.923   0.731   7.749  0.4013 -0.1659 -0.9988
 5297WAT     H231891   3.992   0.619   7.823 -1.0094 -0.6034 -0.2964
 5298WAT      O31892   2.241   6.124   6.501 -0.7755 -0.1610  0.1334
 5298WAT     H131893   2.229   6.030   6.514  1.5372 -0.7216 -1.2048
 5298WAT     H231894   2.161   6.152   6.455 -0.9517 -1.7491 -0.6121
 5299WAT      O31895   4.339   2.759   7.839  0.1441  0.3331 -0.7972
 5299WAT     H131896   4.343   2.761   7.934 -0.3904  0.2426 -0.7701
 5299WAT     H231897   4.360   2.668   7.816  0.2120  0.3402 -0.7640
 5300WAT      O31898   2.730   3.353   0.284 -0.1527 -0.1506 -0.4234
 5300WAT     H131899   2.771   3.299   0.352 -0.7639 -0.1290 -0.0281
 5300WAT     H231900   2.649   3.385   0.325  1.1057  2.7035  0.0668
 5301WAT      O31901   1.036   3.411   5.327  0.0137 -0.2506 -0.2800
 5301WAT     H131902   1.075   3.497   5.340  1.2523 -1.0095  1.4157
 5301WAT     H231903   0.942   3.425   5.336 -0.0278  1.2777 -2.3766
 5302WAT      O31904   4.416   3.481   7.444  0.1178  0.2622 -0.2247
 5302WAT     H131905   4.428   3.550   7.509  1.6562 -0.2547  0.0796
 5302WAT     H231906   4.466   3.407   7.478 -0.1152 -0.4459 -1.3651
 5303WAT      O31907   3.632   0.979   1.774 -0.3191 -0.4777 -0.8009
 5303WAT     H131908   3.696   0.922   1.816  0.0617  0.8072  0.4190
 5303WAT     H231909   3.592   1.029   1.845  0.6598  2.0984 -1.9144
 5304WAT      O31910   3.468   2.614   6.605 -0.5041 -0.0642 -0.1512
 5304WAT     H131911   3.385   2.644   6.641 -0.2361  0.3182  0.1501
 5304WAT     H231912   3.535   2.664   6.652 -0.1076 -0.2853 -0.4698
 5305WAT      O31913   5.318   4.646   7.789 -0.2591 -0.5140 -1.1080
 5305WAT     H131914   5.336   4.583   7.719 -1.2803 -1.2124 -0.7657
 5305WAT     H231915   5.306   4.729   7.743 -2.2592 -1.1891 -1.9618
 5306WAT      O31916   3.247   4.374   0.039  0.2879 -0.0249 -0.4132
 5306WAT     H131917   3.301   4.412  -0.030 -0.3139  0.3829 -0.6671
 5306WAT     H231918   3.287   4.404   0.121  0.0499  0.8389 -0.6063
 5307WAT      O31919   2.063   2.044   0.868 -0.7045  0.0271 -0.3326
 5307WAT     H131920   1.970   2.028   0.882 -0.4789 -1.0215  0.0611
 5307WAT     H231921   2.089   1.978   0.803 -0.2466  0.3645 -0.5007
 5308WAT      O31922   2.525   2.203   6.415 -1.0230 -0.0630 -0.2450
 5308WAT     H131923   2.439   2.238   6.392 -1.8022 -1.9165 -0.3401
 5308WAT     H231924   2.541   2.133   6.351 -0.1087 -0.7035  0.6441
 5309WAT      O31925   4.618   6.144   6.714  0.4557 -0.7391  0.7648
 5309WAT     H131926   4.631   6.141   6.809  0.9670 -0.6563  0.7002
 5309WAT     H231927   4.541   6.200   6.703  0.7391 -0.2720  1.1032
 5310WAT      O31928   3.269   6.118   2.667 -0.0337 -0.1046 -0.2483
 5310WAT     H131929   3.221   6.046   2.708 -2.0052  0.1333 -1.9803
 5310WAT     H231930   3.256   6.105   2.573  1.0964  1.4932 -0.6702
 5311WAT      O31931   2.781   2.538   7.925  0.0204 -0.2069 -0.1105
 5311WAT     H131932   2.729   2.617   7.917 -0.5652 -0.4749  0.8819
 5311WAT     H231933   2.760   2.503   8.011  0.2880 -1.4287 -0.5064
 5312WAT      O31934   1.429   4.316   7.854 -0.0947 -0.1211  0.2103
 5312WAT     H131935   1.353   4.315   7.913  1.0559 -0.8734  1.7536
 5312WAT     H231936   1.440   4.408   7.830 -2.0895 -0.1144 -0.8946
 5313WAT      O31937   2.296   1.672   7.567  0.1446  0.2647  0.2261
 5313WAT     H131938   2.204   1.697   7.567  0.0190 -0.1798 -0.0592
 5313WAT     H231939   2.305   1.617   7.646  0.3616  0.9968  0.7154
 5314WAT      O31940   5.925   2.994   0.109 -0.8369 -0.5825  0.2016
 5314WAT     H131941   5.866   3.068   0.107 -1.2609 -0.8108  2.1164
 5314WAT     H231942   5.905   2.944   0.030 -0.2788  1.4950 -1.3038
 5315WAT      O31943   5.909   5.663   5.773 -0.1161 -0.3010  0.2320
 5315WAT     H131944   5.924   5.579   5.818  0.7397 -0.2139  0.1328
 5315WAT     H231945   5.848   5.710   5.829 -0.7521 -1.0593  0.2023
 5316WAT      O31946   2.666   3.361   1.306 -0.3581 -0.7232 -0.4718
 5316WAT     H131947   2.652   3.455   1.294 -0.4959 -0.4889  1.2449
 5316WAT     H231948   2.722   3.355   1.383  0.0471 -2.0464 -0.8472
 5317WAT      O31949   1.859   5.892   1.348  0.3120  0.2960 -0.4424
 5317WAT     H131950   1.943   5.936   1.357 -0.1318  1.4223 -1.4876
 5317WAT     H231951   1.808   5.922   1.424  1.0278 -0.9029  0.5587
 5318WAT      O31952   3.168   4.912   7.393  0.7906 -0.4431  0.2282
 5318WAT     H131953   3.228   4.976   7.430  0.1369 -0.5714  1.5693
 5318WAT     H231954   3.223   4.837   7.370  1.6535  0.7898 -1.9344
 5319WAT      O31955   1.200   4.530   6.695 -0.4174  0.1730 -0.3945
 5319WAT     H131956   1.192   4.598   6.762 -2.9239  1.0870 -1.5155
 5319WAT     H231957   1.253   4.570   6.626 -0.3833  0.3206 -0.2830
 5320WAT      O31958   5.540   1.226   7.052 -0.4301 -0.6514 -0.5356
 5320WAT     H131959   5.630   1.209   7.025 -0.6223 -1.1249 -0.9028
 5320WAT     H231960   5.493   1.243   6.970 -0.9743 -1.8597 -0.5058
 5321WAT      O31961   4.803   2.384   7.755  0.0287  0.6720  0.8350
 5321WAT     H131962   4.743   2.418   7.821 -0.7017  0.7834  0.1299
 5321WAT     H231963   4.778   2.429   7.674 -0.0261 -0.4924  0.1758
 5322WAT      O31964   2.419   4.356   7.400 -0.4452 -0.2393 -0.4309
 5322WAT     H131965   2.481   4.424   7.426 -1.2873  0.7344 -0.9245
 5322WAT     H231966   2.410   4.301   7.478  1.3738 -0.6755 -0.4880
 5323WAT      O31967   2.737   0.735   5.914 -0.1660  0.4557  0.6162
 5323WAT     H131968   2.647   0.726   5.948 -0.4153  1.5452  0.2974
 5323WAT     H231969   2.756   0.651   5.875 -1.5900  0.6334 -0.5598
 5324WAT      O31970   1.436   1.736   6.946  0.2827 -0.2695  0.2388
 5324WAT     H131971   1.447   1.782   6.862 -1.2667  0.6513  0.5106
 5324WAT     H231972   1.342   1.727   6.956  0.5031 -1.7265  1.1834
 5325WAT      O31973   4.132   4.792   7.151 -0.4614  0.3702  0.0246
 5325WAT     H131974   4.065   4.803   7.218 -0.0497  2.6137  0.1329
 5325WAT     H231975   4.192   4.865   7.164  1.0631 -0.5915 -1.1769
 5326WAT      O31976   5.390   2.703   1.898 -0.0700 -0.3532  0.4856
 5326WAT     H131977   5.372   2.690   1.805  0.6392  1.4454  0.0506
 5326WAT     H231978   5.433   2.622   1.926  1.9298 -0.0275 -1.3863
 5327WAT      O31979   6.170   4.092   7.442 -0.8367  0.2006 -0.2548
 5327WAT     H131980   6.153   4.000   7.424  2.3763 -0.7494  0.8432
 5327WAT     H231981   6.180   4.132   7.355 -1.1038 -0.7501 -0.7400
 5328WAT      O31982   1.087   3.595   7.498 -0.0841 -0.0414 -0.0210
 5328WAT     H131983   1.125   3.605   7.585 -0.2382 -1.9926  0.3044
 5328WAT     H231984   1.160   3.608   7.438 -0.5349  4.6014  0.1175
 5329WAT      O31985   5.487   2.498   0.096  0.0450  0.6425 -0.5289
 5329WAT     H131986   5.421   2.461   0.037 -0.2885  0.8381 -0.2802
 5329WAT     H231987   5.570   2.465   0.062 -0.3525 -2.7182  1.2838
 5330WAT      O31988   3.909   0.863   0.895 -0.2022  0.0378  0.1089
 5330WAT     H131989   3.900   0.829   0.984  2.0933 -0.4072  0.2195
 5330WAT     H231990   3.862   0.946   0.896 -1.3951 -0.6159  1.3236
 5331WAT      O31991   0.133   6.183   6.432  0.0206 -0.3490  0.3461
 5331WAT     H131992   0.043   6.185   6.399  0.1986  0.5891 -0.0990
 5331WAT     H231993   0.123   6.172   6.526 -0.4921 -3.3202  0.0498
 5332WAT      O31994   3.976   4.821   6.451  0.3191 -0.4446  0.3935
 5332WAT     H131995   3.960   4.820   6.546  0.6194 -0.8551  0.4407
 5332WAT     H231996   4.069   4.799   6.442  0.1023 -1.2159 -0.0348
 5333WAT      O31997   3.856   0.816   0.144  0.0849 -0.7524  0.2408
 5333WAT     H131998   3.910   0.760   0.090  0.0629  0.4002 -1.0352
 5333WAT     H231999   3.767   0.804   0.110  0.0709 -0.0188 -0.0111
 5334WAT      O32000   6.058   3.214   6.892 -1.0923 -0.2432  0.1025
 5334WAT     H132001   6.062   3.262   6.809 -1.8638  0.0177  0.2086
 5334WAT     H232002   6.006   3.270   6.950 -0.8445 -0.5807  0.6568
 5335WAT      O32003   0.856   3.403   0.444  0.0546 -0.8034  0.1918
 5335WAT     H132004   0.931   3.456   0.417 -1.6672  0.6488 -2.0144
 5335WAT     H232005   0.878   3.314   0.415  1.5392 -0.7318  0.9818
 5336WAT      O32006   3.166   5.040   0.674 -0.7999  0.6437  0.2717
 5336WAT     H132007   3.213   5.114   0.712  0.8981 -0.9918  1.5100
 5336WAT     H232008   3.234   4.987   0.632 -1.4076 -1.8853  2.2445
 5337WAT      O32009   1.484   6.179   7.454  0.0511  0.1688 -0.6685
 5337WAT     H132010   1.420   6.184   7.383 -1.3440 -1.4951  0.4033
 5337WAT     H232011   1.541   6.256   7.440 -1.4186  1.0305 -2.3511
 5338WAT      O32012   2.945   4.837   0.494  0.3901 -0.9337  0.1581
 5338WAT     H132013   2.971   4.808   0.581 -0.4022 -0.7355  0.4625
 5338WAT     H232014   2.849   4.836   0.495  0.3710 -0.8219 -0.6694
 5339WAT      O32015   4.284   2.522   1.816 -0.3181 -0.0087  0.1316
 5339WAT     H132016   4.333   2.543   1.737  2.4747  2.4385  2.3080
 5339WAT     H232017   4.206   2.577   1.812  0.4728  1.0889 -0.3179
 5340WAT      O32018   5.405   2.061   1.388  0.2902  0.2397 -0.5342
 5340WAT     H132019   5.389   2.012   1.469  0.1404  2.1047  0.6322
 5340WAT     H232020   5.408   2.153   1.416  2.4433  0.7918 -2.3126
 5341WAT      O32021   2.538   2.487   6.653 -0.3461  0.2407 -0.1906
 5341WAT     H132022   2.561   2.556   6.715 -1.4909 -1.7205  2.6789
 5341WAT     H232023   2.596   2.414   6.676 -1.0992 -0.6893 -1.1228
 5342WAT      O32024   3.265   3.121   0.009  0.1990  0.5695  0.2284
 5342WAT     H132025   3.232   3.155   0.092 -0.6500  1.3347 -0.3930
 5342WAT     H232026   3.287   3.030   0.027  0.9477  0.9844  1.5295
 5343WAT      O32027   2.730   1.818   6.192 -0.1146  0.0550  0.2672
 5343WAT     H132028   2.749   1.802   6.285 -0.5919  0.9856  0.5361
 5343WAT     H232029   2.768   1.742   6.147 -0.8694 -0.9904  1.3160
 5344WAT      O32030   2.785   1.500   0.715 -0.2872 -0.4041  0.1617
 5344WAT     H132031   2.730   1.441   0.664  0.1751 -2.2155  1.6570
 5344WAT     H232032   2.868   1.502   0.667 -0.8656  0.4728 -0.8383
 5345WAT      O32033   2.316   2.830   0.892 -0.1180 -0.2134  0.0878
 5345WAT     H132034   2.361   2.748   0.915  0.3857 -0.2063 -0.8400
 5345WAT     H232035   2.224   2.811   0.909  0.2530  0.1133  3.0422
 5346WAT      O32036   1.326   3.852   7.811  0.1839  0.3438  0.1086
 5346WAT     H132037   1.407   3.903   7.804  2.4083 -2.9411 -0.0654
 5346WAT     H232038   1.308   3.849   7.905  0.1360  1.2304  0.1363
 5347WAT      O32039   3.151   1.505   7.121 -0.3322  0.0238  1.0414
 5347WAT     H132040   3.141   1.593   7.086 -1.7354 -0.5787 -0.1459
 5347WAT     H232041   3.090   1.501   7.195 -0.6530 -0.1033  0.7731
 5348WAT      O32042   2.698   2.042   1.374 -0.6240  0.2494  0.3248
 5348WAT     H132043   2.771   1.982   1.392 -1.0964  0.0349  1.6451
 5348WAT     H232044   2.622   1.985   1.363 -0.9410  0.5660  0.8558
 5349WAT      O32045   0.147   3.612   2.077  0.8395  0.2570  0.3259
 5349WAT     H132046   0.055   3.585   2.069  1.0051 -0.6894  1.3395
 5349WAT     H232047   0.190   3.537   2.120  2.0158  0.8212  0.1663
 5350WAT      O32048   3.671   0.791   7.073 -0.4485  0.3190  0.0552
 5350WAT     H132049   3.658   0.701   7.043 -1.0908  0.4037  0.0662
 5350WAT     H232050   3.611   0.843   7.020  1.5250  1.0750 -1.5614
 5351WAT      O32051   0.070   1.834   1.362 -0.0698 -0.3245  0.5229
 5351WAT     H132052   0.035   1.777   1.294 -2.1603 -0.1968  1.4330
 5351WAT     H232053   0.007   1.905   1.369  0.8322  0.3986  1.6260
 5352WAT      O32054   3.665   3.494   1.285 -0.3390  0.2798 -0.1927
 5352WAT     H132055   3.573   3.510   1.301 -1.1923 -3.7776  0.1905
 5352WAT     H232056   3.678   3.516   1.192 -0.9444  3.2274  0.3387
 5353WAT      O32057   3.465   0.579   0.674 -0.7231  0.2437  0.4026
 5353WAT     H132058   3.429   0.505   0.723  1.3269 -1.3080 -0.2635
 5353WAT     H232059   3.525   0.622   0.736  0.7740 -0.8502 -0.2293
 5354WAT      O32060   1.681   2.685   1.215 -0.1563  0.0163  0.1715
 5354WAT     H132061   1.656   2.620   1.149 -0.6991  0.6400 -0.2486
 5354WAT     H232062   1.618   2.672   1.286  0.4300 -0.6575  0.5824
 5355WAT      O32063   4.160   2.225   2.321  0.1403 -0.3470  0.1576
 5355WAT     H132064   4.153   2.132   2.342  0.2248 -0.4717 -0.3595
 5355WAT     H232065   4.095   2.267   2.378 -0.0900 -0.7508  0.1996
 5356WAT      O32066   5.588   5.275   1.986 -0.5015 -0.0283 -0.2769
 5356WAT     H132067   5.664   5.219   2.006  0.0038  0.4424 -0.8302
 5356WAT     H232068   5.514   5.214   1.982  0.2488 -0.8918 -2.2696
 5357WAT      O32069   4.482   5.997   7.186  0.4941 -0.2720 -0.1170
 5357WAT     H132070   4.559   6.006   7.241 -0.0192  1.1691  0.4257
 5357WAT     H232071   4.433   5.925   7.225  0.5422  0.1923  0.8483
 5358WAT      O32072   2.271   4.191   7.057  0.5515  0.2937 -0.0834
 5358WAT     H132073   2.305   4.132   7.124 -0.5960 -1.2319 -0.7815
 5358WAT     H232074   2.265   4.276   7.101  0.1124 -0.5903  1.6794
 5359WAT      O32075   0.719   3.278   7.097 -0.1284  0.0784  0.0542
 5359WAT     H132076   0.696   3.221   7.024  0.2323 -1.5572  1.1744
 5359WAT     H232077   0.641   3.281   7.152  0.0445  0.1949  0.2988
 5360WAT      O32078   5.161   2.371   0.904  0.5043  0.0848 -0.4065
 5360WAT     H132079   5.175   2.452   0.854  1.8710  0.2369  0.2056
 5360WAT     H232080   5.241   2.321   0.892  0.5175 -0.2508  0.9319
 5361WAT      O32081   4.348   2.081   5.346 -0.4593  0.1093  0.0030
 5361WAT     H132082   4.436   2.077   5.383 -0.5084  0.5645  0.1823
 5361WAT     H232083   4.361   2.122   5.260 -0.2892 -1.3280 -0.6957
 5362WAT      O32084   4.543   4.581   6.563  0.1937 -0.4170  0.2815
 5362WAT     H132085   4.604   4.644   6.526  0.2954 -0.4747  0.3507
 5362WAT     H232086   4.598   4.519   6.612  0.0733 -0.4164  0.4212
 5363WAT      O32087   4.596   3.308   6.570 -0.7117  0.1670  0.0745
 5363WAT     H132088   4.541   3.234   6.546 -0.5563 -0.0185  0.2842
 5363WAT     H232089   4.534   3.377   6.595 -0.8506 -0.2984  1.0765
 5364WAT      O32090   0.647   0.747   6.707  0.2560 -0.3035 -0.0605
 5364WAT     H132091   0.557   0.731   6.677  0.0615 -1.6310  1.0915
 5364WAT     H232092   0.700   0.685   6.657  0.0099 -2.0824  1.7446
 5365WAT      O32093   5.074   3.877   6.667  0.0928  0.1995  0.3281
 5365WAT     H132094   4.981   3.874   6.689  0.0499  0.1766  0.1400
 5365WAT     H232095   5.115   3.815   6.727 -0.0855 -0.2018  0.0384
 5366WAT      O32096   5.682   3.489   6.730 -0.3430 -0.2342 -0.3703
 5366WAT     H132097   5.663   3.398   6.705  1.5290 -0.5839 -0.6268
 5366WAT     H232098   5.707   3.532   6.649 -1.9188  0.7511 -0.3790
 5367WAT      O32099   2.094   4.831   7.141 -0.8621 -0.1836  0.4422
 5367WAT     H132100   2.106   4.900   7.076  0.8010  0.4210  1.3255
 5367WAT     H232101   2.069   4.878   7.221 -0.4198 -0.6682  0.8717
 5368WAT      O32102   5.265   5.051   0.821  0.8070 -0.1795  0.0141
 5368WAT     H132103   5.355   5.061   0.790  0.6083  0.9391 -0.2508
 5368WAT     H232104   5.267   4.971   0.873  1.7020 -0.7780 -0.8891
 5369WAT      O32105   6.007   2.891   6.089 -0.8963 -0.0957  0.9403
 5369WAT     H132106   6.053   2.845   6.018 -1.3868 -0.3849  0.7968
 5369WAT     H232107   5.946   2.825   6.123 -2.0171  0.6081  0.3584
 5370WAT      O32108   2.397   3.264   5.608 -0.0825 -0.2271  0.4160
 5370WAT     H132109   2.432   3.328   5.670 -1.4977 -0.8261  1.8994
 5370WAT     H232110   2.375   3.315   5.530  0.8932  0.6916  0.7277
 5371WAT      O32111   3.378   5.260   0.319  0.3797  0.1960 -0.1741
 5371WAT     H132112   3.396   5.177   0.275  0.0045 -0.6149  1.1453
 5371WAT     H232113   3.286   5.278   0.300  0.9231  1.2799 -1.9759
 5372WAT      O32114   3.796   1.967   6.315 -0.1206 -0.3934 -0.1073
 5372WAT     H132115   3.735   2.008   6.376 -0.7893 -2.1607  0.4897
 5372WAT     H232116   3.863   1.928   6.371  1.3299  1.0879 -0.7322
 5373WAT      O32117   5.540   2.905   1.964 -0.0061  0.1907 -0.3415
 5373WAT     H132118   5.598   2.844   2.010  0.2268 -0.1371 -1.0564
 5373WAT     H232119   5.471   2.850   1.927 -0.7266  0.5673  0.4120
 5374WAT      O32120   0.100   2.593   6.783  0.7089  0.3606  0.3407
 5374WAT     H132121   0.067   2.514   6.826  1.5117 -0.1611  0.0112
 5374WAT     H232122   0.021   2.646   6.766 -0.1532 -1.4393 -1.6612
 5375WAT      O32123   2.931   2.316   1.567 -0.2690 -0.1084  0.0255
 5375WAT     H132124   2.871   2.304   1.640  0.8636  0.0615  1.0319
 5375WAT     H232125   3.017   2.327   1.609  0.1845  1.5815 -1.2532
 5376WAT      O32126   1.325   3.250   1.265 -0.1727 -0.0477  0.5253
 5376WAT     H132127   1.354   3.249   1.356 -1.3511 -0.4564  0.9056
 5376WAT     H232128   1.289   3.163   1.250 -1.6438  0.5847  0.2263
 5377WAT      O32129   4.037   4.895   1.098  0.6686 -0.0530 -0.2978
 5377WAT     H132130   4.000   4.868   1.182 -0.0957 -0.5529 -0.7920
 5377WAT     H232131   3.978   4.859   1.032  1.0325  0.6830 -1.0454
 5378WAT      O32132   5.579   0.590   0.729 -0.0825  0.5985  0.7650
 5378WAT     H132133   5.666   0.621   0.754 -0.3936  1.8176  0.4289
 5378WAT     H232134   5.590   0.551   0.643 -0.1583  2.5159 -0.1859
 5379WAT      O32135   1.265   3.313   7.465 -0.3049  0.3907  0.1751
 5379WAT     H132136   1.188   3.332   7.518 -0.6521  2.4438 -0.9670
 5379WAT     H232137   1.237   3.247   7.403 -1.4906  1.8098 -0.8622
 5380WAT      O32138   6.016   1.429   1.585  0.2553 -0.3685 -0.0276
 5380WAT     H132139   5.980   1.456   1.670 -2.9352 -1.6005 -0.8374
 5380WAT     H232140   6.068   1.351   1.604 -0.6457 -0.7887  0.8211
 5381WAT      O32141   3.393   4.943   5.844  0.2456 -0.3742 -0.6706
 5381WAT     H132142   3.354   4.890   5.913 -1.1441 -1.6506 -2.3273
 5381WAT     H232143   3.477   4.900   5.825  2.3792  2.0076  2.4701
 5382WAT      O32144   5.878   1.055   7.197  0.2768 -0.2354 -0.1666
 5382WAT     H132145   5.821   0.979   7.196  1.1816 -0.9171 -1.1173
 5382WAT     H232146   5.963   1.022   7.227  0.5259  0.5069 -0.0211
 5383WAT      O32147   0.593   2.991   1.064 -0.3318  0.1292  0.0919
 5383WAT     H132148   0.651   3.040   1.005 -0.8178 -0.1540 -0.6319
 5383WAT     H232149   0.513   2.977   1.013 -1.0342  0.4787  1.0568
 5384WAT      O32150   1.182   3.615   0.890  0.0317  0.7660  0.3894
 5384WAT     H132151   1.252   3.591   0.950  0.3810 -0.2725 -0.3969
 5384WAT     H232152   1.139   3.532   0.870  0.9268  0.7966 -2.0146
 5385WAT      O32153   4.740   2.717   0.301 -0.6001 -0.2589 -0.0985
 5385WAT     H132154   4.772   2.763   0.379  2.0730 -3.3031  0.8006
 5385WAT     H232155   4.801   2.742   0.231 -0.2119 -0.9939 -0.0375
 5386WAT      O32156   0.282   2.701   5.558 -0.0157  0.3392 -0.5576
 5386WAT     H132157   0.240   2.785   5.540 -0.0784  0.5566  0.5347
 5386WAT     H232158   0.269   2.650   5.478  0.2054  1.4347 -1.3106
 5387WAT      O32159   2.375   6.224   1.830  0.4116  0.2855  0.0017
 5387WAT     H132160   2.400   6.152   1.887 -0.8409 -1.9036 -2.0509
 5387WAT     H232161   2.433   6.296   1.855  2.5839 -1.7958  1.3199
 5388WAT      O32162   0.951   2.659   6.800  0.5619  0.4736  0.0771
 5388WAT     H132163   1.004   2.716   6.856 -0.2931  1.8582 -0.4646
 5388WAT     H232164   0.882   2.626   6.858  1.4255 -0.5635  0.5484
 5389WAT      O32165   4.292   1.488   1.581  0.2855  0.4377  0.6061
 5389WAT     H132166   4.286   1.562   1.520  3.6386  0.9270  0.6935
 5389WAT     H232167   4.266   1.525   1.665  1.7313  1.5359  0.6107
 5390WAT      O32168   1.882   1.584   6.370  0.7984 -0.3158  0.1262
 5390WAT     H132169   1.962   1.560   6.323  1.1399 -0.3774  0.7392
 5390WAT     H232170   1.813   1.532   6.328  1.5935 -2.8273  1.7761
 5391WAT      O32171   5.885   1.390   0.347 -0.4104 -0.2103  0.7530
 5391WAT     H132172   5.965   1.441   0.360 -0.5844  0.1481  0.4305
 5391WAT     H232173   5.844   1.388   0.434  0.5252 -1.3936  1.1924
 5392WAT      O32174   5.493   4.234   0.496  0.0670  0.1221 -0.6875
 5392WAT     H132175   5.569   4.293   0.492 -1.2662  1.8662 -1.5367
 5392WAT     H232176   5.439   4.270   0.566 -0.7097 -0.1782 -1.1221
 5393WAT      O32177   3.816   3.174   0.553 -0.1300  0.1435  0.3401
 5393WAT     H132178   3.799   3.123   0.475 -0.7721 -2.0505  1.8419
 5393WAT     H232179   3.905   3.150   0.579 -0.2963  0.0851  0.8612
 5394WAT      O32180   5.782   4.904   6.838  0.0519  0.4050 -0.4403
 5394WAT     H132181   5.701   4.872   6.878  0.7419 -1.7827 -0.6422
 5394WAT     H232182   5.755   4.944   6.756 -0.8841  0.3619 -0.1580
 5395WAT      O32183   0.101   3.176   1.166 -0.7098  0.2474 -0.4161
 5395WAT     H132184   0.048   3.231   1.223 -0.4034  0.1382 -0.0240
 5395WAT     H232185   0.182   3.225   1.153 -0.4979 -0.0418 -0.1890
 5396WAT      O32186   2.570   0.463   6.851  0.0221  0.0640  0.0583
 5396WAT     H132187   2.550   0.553   6.829  0.2401 -0.2376 -1.4409
 5396WAT     H232188   2.501   0.437   6.912  0.4185  1.4723  1.1740
 5397WAT      O32189   1.520   3.034   1.414  0.4672 -0.1533 -0.0169
 5397WAT     H132190   1.443   3.082   1.444  0.0440 -0.4489 -0.5989
 5397WAT     H232191   1.517   2.952   1.463  0.0036 -0.4672 -0.5637
 5398WAT      O32192   0.930   2.205   6.748 -0.4574  0.3085 -0.3500
 5398WAT     H132193   1.010   2.231   6.793  1.0637 -1.4096 -1.8818
 5398WAT     H232194   0.898   2.286   6.707  0.0162  1.1760  0.9389
 5399WAT      O32195   2.862   2.766   7.544  0.0098  0.0657  0.0866
 5399WAT     H132196   2.783   2.766   7.599 -1.2780  1.3671 -1.6668
 5399WAT     H232197   2.888   2.674   7.540 -1.5859 -0.4369  0.4992
 5400WAT      O32198   5.909   5.969   6.584  0.4846 -0.0605  0.0244
 5400WAT     H132199   5.825   5.928   6.562  1.2815 -1.6600 -0.1696
 5400WAT     H232200   5.886   6.058   6.609 -1.1995 -0.2608 -0.6742
 5401WAT      O32201   5.240   3.892   6.244  0.3742  0.1028 -0.2030
 5401WAT     H132202   5.239   3.982   6.211  3.5202 -0.2904 -1.8142
 5401WAT     H232203   5.309   3.892   6.311  0.9689 -1.2116 -0.7729
 5402WAT      O32204   3.860   5.478   2.336 -0.2129 -0.3828  0.3636
 5402WAT     H132205   3.929   5.421   2.302  0.4027  0.1217  0.7658
 5402WAT     H232206   3.902   5.563   2.349 -0.2351 -0.7084  3.0046
 5403WAT      O32207   1.116   1.106   7.177  0.3291  0.5517 -0.2408
 5403WAT     H132208   1.032   1.132   7.215  0.8231  0.7043  0.7687
 5403WAT     H232209   1.138   1.176   7.116  0.4794  1.2999  0.6604
 5404WAT      O32210   3.255   3.828   7.256 -0.1226  0.2897  0.2743
 5404WAT     H132211   3.246   3.871   7.171 -0.0158 -3.5214 -1.8669
 5404WAT     H232212   3.166   3.831   7.293 -0.6093  0.3268 -0.8623
 5405WAT      O32213   2.389   4.998   6.799 -0.0964 -0.5770  0.8790
 5405WAT     H132214   2.436   4.922   6.833  3.2706  0.7351 -0.3796
 5405WAT     H232215   2.364   4.973   6.710  0.9161 -0.3242  0.5039
 5406WAT      O32216   5.173   5.632   0.595 -0.2946 -0.4734  0.1063
 5406WAT     H132217   5.131   5.630   0.509  1.0108 -2.0724 -0.5321
 5406WAT     H232218   5.205   5.543   0.608  0.9408  0.1511  1.5409
 5407WAT      O32219   5.737   3.569   0.005 -0.1541 -0.4479  0.0230
 5407WAT     H132220   5.744   3.547   0.097 -1.3677  1.1940  0.5695
 5407WAT     H232221   5.725   3.664   0.004  1.3969 -0.1952 -1.9322
 5408WAT      O32222   2.570   2.997   1.156  0.3850  1.0915  0.0937
 5408WAT     H132223   2.515   2.991   1.078  0.2061  0.2527  0.2782
 5408WAT     H232224   2.627   3.071   1.139 -0.9982  2.1947  0.0226
 5409WAT      O32225   0.314   2.712   6.206 -0.0469 -0.3286 -0.3482
 5409WAT     H132226   0.314   2.721   6.301  0.6868  1.3384 -0.4669
 5409WAT     H232227   0.235   2.758   6.177  0.8663  1.1433 -0.6393
 5410WAT      O32228   1.264   6.109   7.269  0.2598  0.1670 -0.1717
 5410WAT     H132229   1.250   6.017   7.291 -0.1579 -0.1231 -1.5090
 5410WAT     H232230   1.209   6.157   7.331 -0.1120 -0.5251  0.0485
 5411WAT      O32231   0.164   1.818   5.575 -0.8978 -0.7065 -0.2588
 5411WAT     H132232   0.128   1.876   5.507 -0.5757 -0.8590 -0.5611
 5411WAT     H232233   0.155   1.868   5.656  0.4165  0.2418 -0.6648
 5412WAT      O32234   4.471   5.364   0.571 -0.3566  0.2858  0.1650
 5412WAT     H132235   4.486   5.285   0.624 -1.7042  0.0713  0.2699
 5412WAT     H232236   4.522   5.350   0.492 -0.2487 -0.5056  0.3651
 5413WAT      O32237   1.857   5.392   7.936 -0.2808 -0.5183 -0.3567
 5413WAT     H132238   1.827   5.358   8.021 -2.1656  1.0994 -0.2994
 5413WAT     H232239   1.934   5.445   7.958 -1.3392  0.7226  0.5596
 5414WAT      O32240   1.503   2.458   5.973 -0.5385  0.6861 -0.6907
 5414WAT     H132241   1.568   2.412   5.920 -1.5758  0.5504 -1.9042
 5414WAT     H232242   1.466   2.390   6.029  1.5256  1.0833  1.3046
 5415WAT      O32243   3.868   5.184   7.333  0.4873 -0.4488 -0.1848
 5415WAT     H132244   3.962   5.171   7.348  0.5717  2.3319  3.0315
 5415WAT     H232245   3.862   5.269   7.289 -0.5543 -1.0214 -1.2015
 5416WAT      O32246   3.462   4.386   1.164 -0.4383  0.0986  0.1322
 5416WAT     H132247   3.369   4.395   1.185 -0.3919  0.4559  0.1883
 5416WAT     H232248   3.472   4.294   1.142 -0.6406 -0.1334  0.9604
 5417WAT      O32249   0.592   3.845   0.543  0.7754  0.1737  0.5826
 5417WAT     H132250   0.584   3.770   0.484  2.1309  0.4243  0.0274
 5417WAT     H232251   0.631   3.809   0.622  3.5387  0.5610 -0.4752
 5418WAT      O32252   0.572   2.901   7.516 -0.1974  0.0625  0.1875
 5418WAT     H132253   0.568   2.995   7.535 -1.3191 -0.2319  1.5914
 5418WAT     H232254   0.602   2.861   7.597  1.3681 -0.7259 -0.7421
 5419WAT      O32255   0.178   2.326   7.426  0.3801 -0.2095 -0.3082
 5419WAT     H132256   0.195   2.379   7.504  1.1825 -0.6494 -0.1766
 5419WAT     H232257   0.233   2.249   7.437  0.1894 -0.4680 -1.1180
 5420WAT      O32258   4.698   5.589   0.350 -0.1621 -0.1079 -1.0419
 5420WAT     H132259   4.692   5.494   0.361  2.4085 -0.3936 -1.5418
 5420WAT     H232260   4.609   5.616   0.325 -1.3635 -2.1033  0.7388
 5421WAT      O32261   3.479   6.094   6.952 -0.6580 -0.0854 -0.5808
 5421WAT     H132262   3.408   6.148   6.918 -1.0380 -0.8248 -0.9811
 5421WAT     H232263   3.533   6.073   6.876  0.6802  1.4223 -0.1158
 5422WAT      O32264   3.411   0.986   1.397  0.5099 -0.1116 -0.8085
 5422WAT     H132265   3.361   1.067   1.403  1.0161  0.1535 -0.1323
 5422WAT     H232266   3.501   1.011   1.416  1.0030 -0.5066 -2.4284
 5423WAT      O32267   3.966   3.618   7.821 -0.7083  0.0337 -1.1536
 5423WAT     H132268   4.054   3.617   7.784  0.3716  1.2497  1.1881
 5423WAT     H232269   3.933   3.706   7.804  0.1849  0.9590  1.3672
 5424WAT      O32270   3.998   5.954   6.996 -0.3869  0.0806 -0.3257
 5424WAT     H132271   3.981   5.959   6.902 -1.4841  0.5196 -0.1250
 5424WAT     H232272   4.079   6.003   7.009  0.1887 -0.6364 -1.1329
 5425WAT      O32273   6.140   1.883   7.354 -0.0092  0.2162 -0.0259
 5425WAT     H132274   6.152   1.964   7.403  2.6814  1.2007 -2.0661
 5425WAT     H232275   6.046   1.868   7.355 -0.3621  2.0497  2.3966
 5426WAT      O32276   1.234   0.703   6.387  0.0866 -0.1496  0.1352
 5426WAT     H132277   1.251   0.707   6.293  1.0630  0.2084  0.3100
 5426WAT     H232278   1.318   0.676   6.425 -0.1544  0.2082  0.9402
 5427WAT      O32279   4.243   2.096   6.013  0.4428 -0.4863  0.1360
 5427WAT     H132280   4.206   2.028   5.957 -0.3153  1.1620 -1.4731
 5427WAT     H232281   4.167   2.138   6.053  0.9060 -0.5565  1.1300
 5428WAT      O32282   4.131   3.294   7.025  0.3017 -0.0163 -0.5435
 5428WAT     H132283   4.048   3.284   6.978 -0.2523 -0.5942  0.5312
 5428WAT     H232284   4.116   3.368   7.084  0.5070 -0.2087 -0.2498
 5429WAT      O32285   4.518   3.581   7.838 -0.5866  0.1518  0.7605
 5429WAT     H132286   4.588   3.632   7.797 -1.0522  0.3758  0.2433
 5429WAT     H232287   4.558   3.495   7.854 -0.8775 -0.5387 -1.7423
 5430WAT      O32288   4.850   0.484   5.946 -0.2885 -0.8503 -0.0615
 5430WAT     H132289   4.936   0.512   5.979  0.1731 -1.2470 -0.8812
 5430WAT     H232290   4.867   0.397   5.908 -0.8465 -0.5373 -1.0584
 5431WAT      O32291   4.036   0.152   1.644  0.4614 -0.3982 -0.2267
 5431WAT     H132292   4.084   0.164   1.726 -1.0107 -0.9166  0.7525
 5431WAT     H232293   3.986   0.071   1.658  1.0279 -1.1195 -2.0740
 5432WAT      O32294   4.548   5.583   5.914 -0.2966 -0.3597  0.3123
 5432WAT     H132295   4.502   5.574   5.998 -0.8204 -0.5127  0.0130
 5432WAT     H232296   4.540   5.676   5.893 -0.0313 -0.2909  0.5045
 5433WAT      O32297   3.355   2.558   7.904 -0.3433 -0.4639  0.2698
 5433WAT     H132298   3.283   2.495   7.912  0.0937 -1.0319 -0.1907
 5433WAT     H232299   3.433   2.504   7.892  0.1499  0.1485  0.6502
 5434WAT      O32300   4.676   1.285   1.188 -0.3131  0.6097 -0.1592
 5434WAT     H132301   4.645   1.207   1.143  0.9260 -0.7230  1.2056
 5434WAT     H232302   4.597   1.330   1.217 -1.0760 -1.6408  1.5114
 5435WAT      O32303   2.851   0.802   0.468 -0.3199  0.4323  0.3526
 5435WAT     H132304   2.789   0.851   0.414 -1.9485  0.2778  1.9660
 5435WAT     H232305   2.800   0.778   0.546  1.4775 -0.6860  1.2384
 5436WAT      O32306   4.219   4.014   0.113  0.1894  0.0599 -0.8069
 5436WAT     H132307   4.313   4.019   0.131  0.2067  1.2267 -1.1559
 5436WAT     H232308   4.213   3.963   0.033  0.4513 -0.8345 -0.2740
 5437WAT      O32309   1.510   5.136   0.706  0.6945 -0.0520  0.1655
 5437WAT     H132310   1.493   5.043   0.695 -0.4691  0.3581 -2.0106
 5437WAT     H232311   1.585   5.154   0.649 -0.2374  0.6459 -0.8765
 5438WAT      O32312   2.033   3.188   0.853 -0.3637 -0.2338 -0.0227
 5438WAT     H132313   1.945   3.226   0.847 -0.6640  0.5897  5.1179
 5438WAT     H232314   2.092   3.261   0.830 -0.9361 -0.0225 -0.9009
 5439WAT      O32315   0.467   5.121   5.648 -0.3661  0.3330 -0.2063
 5439WAT     H132316   0.503   5.105   5.561 -0.3912 -1.4416  0.0699
 5439WAT     H232317   0.498   5.209   5.671  1.4339 -0.0178 -1.1288
 5440WAT      O32318   4.054   5.904   6.457 -0.0254 -0.0342 -0.4139
 5440WAT     H132319   4.046   5.824   6.510 -1.1310  0.1809 -0.2167
 5440WAT     H232320   3.970   5.910   6.411 -0.3012  1.4566  0.2255
 5441WAT      O32321   6.002   2.751   7.604 -0.0940 -0.7270 -0.3349
 5441WAT     H132322   6.039   2.746   7.692 -0.0045 -0.7868 -0.3759
 5441WAT     H232323   6.003   2.844   7.583 -2.3490 -0.4025  0.6878
 5442WAT      O32324   0.602   1.002   7.883 -0.0640  0.3418  0.3856
 5442WAT     H132325   0.549   0.968   7.811  0.4961  1.0360 -0.3750
 5442WAT     H232326   0.594   1.097   7.876  2.4770  0.5805 -0.7479
 5443WAT      O32327   3.771   0.220   0.772 -0.4844  0.1805 -0.4357
 5443WAT     H132328   3.803   0.142   0.818 -0.5812 -0.3671 -1.2802
 5443WAT     H232329   3.850   0.269   0.750 -0.4099  0.2181 -0.0895
 5444WAT      O32330   4.227   2.811   2.068 -0.5632  0.2258  0.2949
 5444WAT     H132331   4.309   2.853   2.041  0.2668 -0.6673  1.3070
 5444WAT     H232332   4.213   2.743   2.003 -0.5689  0.4582  0.0506
 5445WAT      O32333   3.786   5.252   7.584 -1.1812  0.0901  0.5328
 5445WAT     H132334   3.703   5.298   7.576 -0.2168  1.9590  0.6575
 5445WAT     H232335   3.796   5.206   7.501 -2.6758 -0.8235  0.8177
 5446WAT      O32336   4.964   3.747   7.488 -0.7557  0.2942  0.2189
 5446WAT     H132337   4.939   3.675   7.546 -4.0243  1.4733  0.4818
 5446WAT     H232338   4.956   3.711   7.400  0.8345 -0.5257  0.3811
 5447WAT      O32339   4.602   6.138   6.990 -0.4784  0.6483  0.4747
 5447WAT     H132340   4.550   6.092   7.057  1.1110 -0.4805  0.9708
 5447WAT     H232341   4.672   6.181   7.039  1.0702 -0.6790 -0.4893
 5448WAT      O32342   5.475   0.000   0.413 -0.8744 -0.0763 -0.1109
 5448WAT     H132343   5.450   0.042   0.496  0.0305  1.2748 -0.4833
 5448WAT     H232344   5.571   0.005   0.412 -0.6392 -3.1071  0.2576
 5449WAT      O32345   1.696   4.695   6.622  0.0530 -0.1505 -0.4192
 5449WAT     H132346   1.751   4.694   6.701 -2.1567 -1.9256  1.2377
 5449WAT     H232347   1.747   4.645   6.558  1.2427 -0.0110  0.3661
 5450WAT      O32348   3.764   4.199   7.067  0.1511  0.4306  0.0215
 5450WAT     H132349   3.783   4.253   6.991  2.4694 -0.7224 -0.2915
 5450WAT     H232350   3.783   4.109   7.039  3.1147  0.1260  2.4339
 5451WAT      O32351   4.676   0.578   6.931  0.0824 -0.3872 -0.1115
 5451WAT     H132352   4.710   0.650   6.877  1.1284  0.1682  1.2522
 5451WAT     H232353   4.704   0.599   7.020  2.4904 -3.6362  0.0872
 5452WAT      O32354   0.131   1.868   2.128 -0.6737  0.3963 -0.1147
 5452WAT     H132355   0.145   1.814   2.050 -0.8139  1.9494 -1.2818
 5452WAT     H232356   0.215   1.866   2.174 -0.4596 -0.2374 -0.5174
 5453WAT      O32357   4.897   2.253   6.927  0.3639 -0.5380  0.2274
 5453WAT     H132358   4.847   2.171   6.925 -0.2011 -0.2212  0.8382
 5453WAT     H232359   4.985   2.228   6.901 -0.0488 -1.1609 -0.6249
 5454WAT      O32360   2.627   3.949   1.112  0.0688  0.2592  0.1010
 5454WAT     H132361   2.681   3.873   1.090 -2.1950 -1.3393 -0.3472
 5454WAT     H232362   2.540   3.913   1.127 -1.1622  2.8006 -0.2887
 5455WAT      O32363   0.926   0.873   6.384 -0.0962  0.8766  0.0487
 5455WAT     H132364   0.958   0.963   6.376 -1.1628  1.1420 -1.8681
 5455WAT     H232365   0.957   0.830   6.304 -1.4605  0.1745 -0.1293
 5456WAT      O32366   1.713   4.727   7.293 -0.4712  0.0026 -0.2852
 5456WAT     H132367   1.626   4.687   7.305  0.1475 -1.5725 -0.7867
 5456WAT     H232368   1.701   4.818   7.319 -2.2433 -0.2144 -0.2065
 5457WAT      O32369   2.199   5.141   7.785  0.0407  0.4736 -0.4092
 5457WAT     H132370   2.279   5.088   7.783 -0.2027  0.0081  0.9962
 5457WAT     H232371   2.205   5.197   7.707  0.9753 -0.6372 -1.1615
 5458WAT      O32372   0.887   5.856   1.514 -0.1897  0.3782 -0.0657
 5458WAT     H132373   0.915   5.817   1.432  0.0736 -0.8820  0.5987
 5458WAT     H232374   0.886   5.950   1.497  1.4897  0.2682 -1.0184
 5459WAT      O32375   5.173   3.621   5.805 -0.0425  0.0623 -0.3321
 5459WAT     H132376   5.191   3.662   5.720  0.8773 -0.8270 -0.5739
 5459WAT     H232377   5.237   3.551   5.813  1.5075  1.6100  2.1532
 5460WAT      O32378   2.881   4.091   1.142  0.3625 -0.2788 -0.2738
 5460WAT     H132379   2.797   4.072   1.100 -0.5843  1.1867  0.8742
 5460WAT     H232380   2.859   4.109   1.233  1.8493  0.6317 -0.0644
 5461WAT      O32381   0.960   2.848   7.514  0.3546  0.4560 -0.2860
 5461WAT     H132382   0.956   2.937   7.478 -0.0105  0.1542 -1.0097
 5461WAT     H232383   0.965   2.861   7.609 -0.7415  1.2423 -0.3146
 5462WAT      O32384   4.739   6.052   1.524  0.2126 -0.1124 -0.2627
 5462WAT     H132385   4.677   6.112   1.565 -1.2173 -0.6219 -1.5560
 5462WAT     H232386   4.721   5.967   1.565  0.2933 -0.1956 -0.3972
 5463WAT      O32387   0.569   1.996   5.872  0.5749 -0.1398 -0.7061
 5463WAT     H132388   0.612   1.976   5.955  0.9149  1.8256 -0.3474
 5463WAT     H232389   0.500   2.058   5.896  0.3487  0.0629 -1.8224
 5464WAT      O32390   1.853   3.260   6.427 -0.0512 -0.1338 -0.7362
 5464WAT     H132391   1.800   3.317   6.482  0.8112  0.1425 -0.1728
 5464WAT     H232392   1.812   3.264   6.341 -0.4318  0.7522 -0.5177
 5465WAT      O32393   4.178   0.769   0.821 -0.2932 -0.0678  0.3775
 5465WAT     H132394   4.093   0.726   0.819 -0.8099  0.9392  0.2242
 5465WAT     H232395   4.189   0.796   0.912 -0.1308 -0.2055  0.3998
 5466WAT      O32396   0.934   5.941   7.311  0.3982  0.3605 -0.2475
 5466WAT     H132397   0.879   5.879   7.360  0.2716  0.0083 -0.8307
 5466WAT     H232398   1.024   5.917   7.334  0.4926 -1.7213 -2.3851
 5467WAT      O32399   3.909   2.257   5.524  0.0186  0.1970  0.3055
 5467WAT     H132400   3.936   2.247   5.616  0.9469 -0.8069 -0.0521
 5467WAT     H232401   3.977   2.211   5.474 -0.3433  0.9441 -0.9077
 5468WAT      O32402   1.064   4.749   1.281 -0.3244 -0.1284  0.0813
 5468WAT     H132403   0.972   4.752   1.307  0.0820 -0.8190  1.7147
 5468WAT     H232404   1.069   4.676   1.219 -0.5208 -1.5755  1.6975
 5469WAT      O32405   5.356   1.530   1.824  0.1448  0.0446  0.1162
 5469WAT     H132406   5.374   1.571   1.908  0.8101  1.3378 -0.6322
 5469WAT     H232407   5.424   1.463   1.814  2.0970  2.0480 -0.7927
 5470WAT      O32408   0.726   2.286   0.048  0.0071  0.3463  0.0956
 5470WAT     H132409   0.717   2.381   0.055 -1.1213  0.4609 -2.0219
 5470WAT     H232410   0.783   2.273  -0.028 -0.8238 -0.6477 -0.3748
 5471WAT      O32411   3.196   4.182   7.658  0.3014  0.7306  0.0820
 5471WAT     H132412   3.126   4.209   7.718 -0.1820  1.1070 -0.6295
 5471WAT     H232413   3.266   4.150   7.715 -0.5774  0.0177  0.8095
 5472WAT      O32414   0.580   5.048   1.195  0.4657 -0.0548 -0.2332
 5472WAT     H132415   0.621   5.024   1.113 -0.6333  0.0176 -0.8230
 5472WAT     H232416   0.627   4.997   1.261  1.2301 -0.2614 -0.9217
 5473WAT      O32417   2.433   3.686   6.686 -0.6383 -0.0112 -0.3727
 5473WAT     H132418   2.501   3.729   6.738 -1.2598  0.3411  0.1772
 5473WAT     H232419   2.469   3.600   6.665 -0.1516  0.0533  0.1736
 5474WAT      O32420   4.704   2.031   1.561 -0.0519 -0.4593  0.5978
 5474WAT     H132421   4.779   2.073   1.602  1.1663 -3.5301  1.8301
 5474WAT     H232422   4.628   2.069   1.606  0.9146  0.6443  1.3527
 5475WAT      O32423   1.453   5.480   7.432  0.4104  0.2560  0.3432
 5475WAT     H132424   1.517   5.451   7.497  0.4671  1.1579  0.6986
 5475WAT     H232425   1.485   5.566   7.403  1.1678 -0.7068 -1.9236
 5476WAT      O32426   5.992   2.979   0.724  0.2727  0.3239  0.3048
 5476WAT     H132427   5.950   3.062   0.702  0.1091  0.4142  0.9347
 5476WAT     H232428   6.073   2.978   0.673  1.4829  1.9591  2.0815
 5477WAT      O32429   3.676   2.592   1.250 -0.6805 -0.0845  0.4719
 5477WAT     H132430   3.667   2.504   1.286  0.0528  0.9118  3.3005
 5477WAT     H232431   3.736   2.581   1.176 -2.0428 -2.2032 -0.4091
 5478WAT      O32432   3.170   1.335   0.953  0.0771  0.2057 -0.0528
 5478WAT     H132433   3.189   1.265   0.890 -1.1012  0.7678 -1.0788
 5478WAT     H232434   3.095   1.381   0.916 -0.9784  0.2753  1.9995
 5479WAT      O32435   5.118   2.522   7.352 -0.2970 -0.2558  0.2648
 5479WAT     H132436   5.212   2.536   7.337 -0.4877  0.0577 -0.6796
 5479WAT     H232437   5.100   2.436   7.313 -0.6444  0.2314 -0.6811
 5480WAT      O32438   1.542   5.451   7.939 -0.0615 -0.0878 -0.0512
 5480WAT     H132439   1.573   5.538   7.966 -0.4501 -0.5029  1.8716
 5480WAT     H232440   1.613   5.392   7.964 -0.5910 -0.5406  0.4069
 5481WAT      O32441   1.449   1.036   7.559  0.1815  0.1856  0.0357
 5481WAT     H132442   1.426   1.043   7.651 -2.2750 -1.1994 -0.3922
 5481WAT     H232443   1.391   1.099   7.515 -0.9084 -1.3331 -0.8058
 5482WAT      O32444   4.602   4.691   7.222  0.1719 -0.2248 -0.4231
 5482WAT     H132445   4.515   4.657   7.201  0.4418 -1.3612  0.2315
 5482WAT     H232446   4.657   4.613   7.230  1.1347  0.4486 -0.2772
 5483WAT      O32447   3.320   0.274   1.766  0.2096 -0.8401  0.0460
 5483WAT     H132448   3.238   0.324   1.765  0.5212 -0.2830  1.0534
 5483WAT     H232449   3.338   0.260   1.859  1.6640 -0.2881 -0.1352
 5484WAT      O32450   2.742   3.604   5.881  0.2674 -0.6915 -0.3322
 5484WAT     H132451   2.750   3.549   5.802 -0.7185 -0.1196 -0.8514
 5484WAT     H232452   2.762   3.692   5.851 -0.7243 -0.3684 -0.0958
 5485WAT      O32453   1.898   0.080   0.854  0.2103  0.2223  0.1925
 5485WAT     H132454   1.982   0.097   0.812 -0.0510 -0.1861 -0.5132
 5485WAT     H232455   1.908  -0.006   0.895  0.4885  0.6499  1.0502
 5486WAT      O32456   4.978   0.876   6.668  0.2427  0.0161  0.0552
 5486WAT     H132457   5.029   0.858   6.589  0.5648  2.0946 -0.2655
 5486WAT     H232458   5.002   0.965   6.693  0.0564 -0.5276  2.4586
 5487WAT      O32459   2.980   5.157   0.503 -0.4491 -0.4623 -0.5835
 5487WAT     H132460   2.915   5.088   0.518 -0.0161 -0.7219  0.1579
 5487WAT     H232461   3.053   5.134   0.560 -0.2076  0.5032 -0.4880
 5488WAT      O32462   2.873   5.795   1.979  0.2062  0.1482 -0.2987
 5488WAT     H132463   2.799   5.847   2.011  0.2650  0.8102 -1.1990
 5488WAT     H232464   2.917   5.766   2.059 -0.2794  0.8277  0.2408
 5489WAT      O32465   2.473   1.597   7.098  0.4443  0.3640  0.1432
 5489WAT     H132466   2.554   1.645   7.111  0.8151 -0.0673 -0.5075
 5489WAT     H232467   2.492   1.535   7.027 -0.7632  1.0143 -0.8113
 5490WAT      O32468   0.795   2.730   1.742 -0.3347  0.4702  0.4855
 5490WAT     H132469   0.726   2.723   1.677  0.4773  0.5888 -0.4202
 5490WAT     H232470   0.855   2.658   1.721 -0.1472  0.4097  1.2074
 5491WAT      O32471   3.956   4.062   0.288  0.5209 -0.5384 -0.2778
 5491WAT     H132472   4.027   4.106   0.242  0.0064 -0.7415 -1.2901
 5491WAT     H232473   3.999   4.016   0.360  1.2928  0.0869 -0.3253
 5492WAT      O32474   2.008   2.281   0.453  0.6312  0.0383  0.6169
 5492WAT     H132475   2.009   2.366   0.409  1.6806 -0.2615  0.0220
 5492WAT     H232476   1.984   2.219   0.384  1.7274 -0.3665  0.5741
 5493WAT      O32477   4.709   4.347   1.275 -0.6310  0.1601  0.5650
 5493WAT     H132478   4.777   4.300   1.227  0.8755  1.5028  1.2959
 5493WAT     H232479   4.739   4.437   1.278 -2.2551  0.7226  1.2911
 5494WAT      O32480   1.385   5.896   7.783  0.2288  0.5352  0.4416
 5494WAT     H132481   1.396   5.940   7.867 -1.9510 -0.1574  1.1614
 5494WAT     H232482   1.372   5.967   7.720 -0.5901  1.0112  1.1273
 5495WAT      O32483   6.083   1.847   0.933  0.2935  0.5532 -0.3009
 5495WAT     H132484   6.119   1.806   1.011  1.3825  0.8019 -0.6606
 5495WAT     H232485   5.989   1.827   0.936  0.5029 -0.3517  0.4970
 5496WAT      O32486   4.711   2.155   6.669  0.0337  0.0419 -0.4760
 5496WAT     H132487   4.661   2.211   6.728 -0.3881  0.7837 -1.5176
 5496WAT     H232488   4.701   2.195   6.583  1.7664 -0.2522 -0.8478
 5497WAT      O32489   1.782   4.231   1.313 -0.4131  0.0181  0.0059
 5497WAT     H132490   1.858   4.179   1.285  1.9841  2.3927  1.6194
 5497WAT     H232491   1.737   4.175   1.377 -0.2009 -1.5388 -1.1598
 5498WAT      O32492   2.665   4.750   7.923 -0.1358  0.0196  0.3580
 5498WAT     H132493   2.613   4.791   7.855  1.5781  1.1157 -0.3548
 5498WAT     H232494   2.623   4.777   8.005  0.2755  2.3253 -0.1347
 5499WAT      O32495   2.034   3.088   7.557 -0.4898 -0.2069  0.1848
 5499WAT     H132496   1.966   3.143   7.519 -0.1266 -0.4654 -0.8806
 5499WAT     H232497   2.011   2.999   7.530  0.1394 -0.3198 -0.0073
 5500WAT      O32498   3.624   0.718   6.314  0.2059 -0.3268 -0.1696
 5500WAT     H132499   3.551   0.659   6.294  0.2120  0.0492 -1.3651
 5500WAT     H232500   3.677   0.718   6.235 -0.2279  1.9350 -0.5068
 5501WAT      O32501   4.456   2.072   2.495  0.1920 -0.1349  0.1023
 5501WAT     H132502   4.368   2.087   2.461 -0.2508 -1.0805  0.7599
 5501WAT     H232503   4.468   1.977   2.488  1.2903  0.0102 -0.2657
 5502WAT      O32504   1.616   5.716   0.071  0.3861  0.7573  0.0983
 5502WAT     H132505   1.650   5.765  -0.004  0.2162 -0.4062 -0.7647
 5502WAT     H232506   1.575   5.783   0.126  1.0769  1.7227 -0.5172
 5503WAT      O32507   3.930   4.426   1.111 -0.1950  0.0622  0.0848
 5503WAT     H132508   3.932   4.519   1.090  2.8214  0.2335  0.6872
 5503WAT     H232509   3.841   4.411   1.142 -1.0816  2.4802 -1.0098
 5504WAT      O32510   2.371   0.095   1.461 -1.2063  0.0166  0.4804
 5504WAT     H132511   2.403   0.014   1.502  0.8386  0.8418  0.6428
 5504WAT     H232512   2.397   0.164   1.522  0.0633  1.0789 -1.1728
   6.20360   6.23429   7.94475
